/*--------------------------------*- C++ -*----------------------------------*\
  =========                 |
  \\      /  F ield         | OpenFOAM: The Open Source CFD Toolbox
   \\    /   O peration     | Website:  https://openfoam.org
    \\  /    A nd           | Version:  6
     \\/     M anipulation  |
\*---------------------------------------------------------------------------*/
FoamFile
{
    version     2.0;
    format      ascii;
    class       volScalarField;
    location    "1";
    object      p;
}
// * * * * * * * * * * * * * * * * * * * * * * * * * * * * * * * * * * * * * //

dimensions      [0 2 -2 0 0 0 0];

internalField   nonuniform List<scalar> 
4800
(
7.59758e-11
-0.00096438
-0.00304626
-0.00568364
-0.00874019
-0.0122105
-0.0157826
-0.0192555
-0.0224862
-0.025389
-0.0277813
-0.0295183
-0.0307048
-0.0316259
-0.0325628
-0.0336352
-0.0347153
-0.0356405
-0.0360982
-0.0358259
-1.25851e-06
-0.000962766
-0.00304536
-0.00568091
-0.00873862
-0.0122111
-0.0157828
-0.0192558
-0.0224862
-0.0253916
-0.0277823
-0.0295215
-0.0307077
-0.0316293
-0.0325659
-0.0336356
-0.0347236
-0.0356575
-0.0361244
-0.0358905
-1.00874e-05
-0.000957278
-0.00304212
-0.00567012
-0.00873384
-0.0122116
-0.0157831
-0.0192554
-0.0224882
-0.0254
-0.0277891
-0.0295313
-0.0307151
-0.0316377
-0.0325699
-0.0336352
-0.0347426
-0.0356974
-0.0361855
-0.0360493
-2.26986e-05
-0.000951154
-0.00303434
-0.0056492
-0.00872415
-0.0122103
-0.0157799
-0.0192515
-0.0224933
-0.0254167
-0.0278053
-0.0295475
-0.0307283
-0.0316491
-0.0325739
-0.0336342
-0.0347858
-0.0357748
-0.036296
-0.0363016
-2.63283e-05
-0.000952148
-0.00302105
-0.00562033
-0.00870906
-0.0122043
-0.0157671
-0.0192416
-0.0225015
-0.0254436
-0.0278344
-0.0295701
-0.0307474
-0.0316631
-0.0325763
-0.0336335
-0.0348614
-0.0358965
-0.036475
-0.0365394
-1.41141e-05
-0.000965299
-0.00300433
-0.00558581
-0.0086912
-0.0121901
-0.0157407
-0.0192247
-0.0225139
-0.0254837
-0.0278787
-0.0296003
-0.0307734
-0.0316813
-0.032579
-0.0336347
-0.0349687
-0.036053
-0.0366364
-0.0366961
1.02646e-05
-0.000989643
-0.00298769
-0.00554703
-0.00867522
-0.0121655
-0.0157005
-0.0192024
-0.0225346
-0.0255408
-0.027939
-0.029643
-0.0308082
-0.0317064
-0.0325915
-0.0336456
-0.0350978
-0.036219
-0.0367537
-0.0367381
4.13203e-05
-0.00101937
-0.00297247
-0.00550588
-0.00866402
-0.0121311
-0.0156517
-0.0191807
-0.0225673
-0.0256164
-0.0280158
-0.0297011
-0.0308574
-0.0317431
-0.0326269
-0.0337063
-0.0352481
-0.0363844
-0.0368488
-0.0367017
9.702e-05
-0.00104739
-0.00295321
-0.00546484
-0.00865474
-0.0120882
-0.0156025
-0.0191645
-0.0226131
-0.0257045
-0.028106
-0.029771
-0.0309332
-0.0317993
-0.032685
-0.0338665
-0.0353955
-0.0365614
-0.036988
-0.0367301
0.000210092
-0.00106346
-0.00291924
-0.0054235
-0.008639
-0.0120321
-0.0155571
-0.0191531
-0.0226723
-0.0257914
-0.0282025
-0.0298522
-0.0310431
-0.0318734
-0.0327452
-0.0339831
-0.0355052
-0.0367754
-0.0372689
-0.0368095
0.000340612
-0.0010457
-0.00285981
-0.00537584
-0.00860292
-0.011957
-0.0155123
-0.0191431
-0.0227362
-0.0258628
-0.0283001
-0.0299475
-0.0311683
-0.0319309
-0.0327604
-0.0339953
-0.0355261
-0.0370203
-0.0377842
-0.037036
0.000353024
-0.000979864
-0.00276588
-0.00531804
-0.00852957
-0.0118677
-0.0154584
-0.0191385
-0.0227872
-0.0259174
-0.0283938
-0.030084
-0.031228
-0.0319275
-0.0327097
-0.0338842
-0.035415
-0.0372268
-0.0384171
-0.0377533
0.000190658
-0.000875002
-0.00263937
-0.00525691
-0.00841152
-0.0117759
-0.0153935
-0.0191461
-0.0228169
-0.0259713
-0.0284888
-0.0301961
-0.0311846
-0.031829
-0.0325913
-0.0336857
-0.0351928
-0.0373711
-0.038963
-0.0390566
-6.52808e-06
-0.00075742
-0.00250639
-0.00519081
-0.00826399
-0.0116846
-0.0153339
-0.0191714
-0.0228386
-0.0260349
-0.0285621
-0.0301895
-0.0310328
-0.0316369
-0.0324168
-0.0334941
-0.0350306
-0.0376482
-0.0398844
-0.0409898
-5.58703e-05
-0.000640651
-0.00240199
-0.00510521
-0.00811511
-0.011589
-0.0152987
-0.0192108
-0.0228765
-0.0260964
-0.0285589
-0.0300244
-0.0307859
-0.0313827
-0.0322198
-0.0334315
-0.0352711
-0.0384064
-0.0413359
-0.0431539
0.00011265
-0.000520891
-0.00233794
-0.00498645
-0.00798329
-0.01149
-0.0152978
-0.0192558
-0.0229331
-0.0261153
-0.0284205
-0.0297313
-0.0304715
-0.0311091
-0.0320468
-0.0335713
-0.0360827
-0.039773
-0.0432564
-0.0454407
0.000422922
-0.000411427
-0.00229135
-0.00484057
-0.00786693
-0.0114027
-0.015321
-0.0192954
-0.022973
-0.0260316
-0.0281362
-0.0293448
-0.0301048
-0.0308416
-0.031936
-0.0338793
-0.0373316
-0.0416567
-0.0455241
-0.047821
0.000705144
-0.000310683
-0.00221942
-0.00467784
-0.00775286
-0.0113351
-0.0153345
-0.0193048
-0.0229372
-0.0258037
-0.0277167
-0.0288793
-0.0296912
-0.0305856
-0.0319364
-0.0343578
-0.038887
-0.0438798
-0.0479736
-0.0501707
0.000821456
-0.000215528
-0.0020854
-0.00451318
-0.00763052
-0.0112753
-0.0152955
-0.019242
-0.02276
-0.0254197
-0.0271975
-0.0283607
-0.0292629
-0.0303589
-0.0321246
-0.0353336
-0.0407856
-0.046273
-0.0504003
-0.0523226
0.000787685
-9.94496e-05
-0.00188145
-0.00434546
-0.0074958
-0.0111975
-0.0151745
-0.0190618
-0.0224135
-0.0249174
-0.0266466
-0.0278481
-0.0288897
-0.0302345
-0.0325676
-0.0371117
-0.0431292
-0.0487317
-0.05265
-0.0541662
0.000826372
7.50141e-05
-0.00163394
-0.00415661
-0.00734242
-0.0110647
-0.0149658
-0.0187454
-0.021957
-0.0243919
-0.0261428
-0.0274196
-0.0286491
-0.0303497
-0.0334145
-0.0392699
-0.0457061
-0.0511467
-0.0546453
-0.0556693
0.00111632
0.000326187
-0.00137607
-0.00392445
-0.00714932
-0.0108364
-0.0146779
-0.0183474
-0.0214826
-0.0239323
-0.0257388
-0.0271395
-0.0285995
-0.0308176
-0.0352295
-0.0417673
-0.0482635
-0.053332
-0.0562962
-0.0568117
0.00150803
0.000620623
-0.00111173
-0.00365804
-0.00688812
-0.0105177
-0.014314
-0.0179225
-0.021028
-0.0235296
-0.0254283
-0.0270184
-0.0288159
-0.0317181
-0.0376024
-0.0444431
-0.0506172
-0.0551259
-0.05752
-0.0575782
0.00175363
0.000916522
-0.00082495
-0.00337132
-0.00655432
-0.0101397
-0.013877
-0.0174414
-0.0205429
-0.0230996
-0.0251601
-0.0270361
-0.0293944
-0.0336005
-0.0402368
-0.0470351
-0.0526533
-0.0564928
-0.0583363
-0.0580233
0.00190738
0.00121225
-0.000519888
-0.00305933
-0.00618281
-0.0097218
-0.0133768
-0.0168583
-0.0199494
-0.0225784
-0.0249036
-0.0272447
-0.0303799
-0.0361516
-0.0430715
-0.0494614
-0.0543747
-0.0575285
-0.0588848
-0.0582949
0.00219095
0.00151899
-0.000221163
-0.00273562
-0.0058198
-0.00927934
-0.0128263
-0.0161855
-0.0192332
-0.021969
-0.0246663
-0.027754
-0.0320905
-0.0389055
-0.0458534
-0.0516523
-0.0558224
-0.0583573
-0.059322
-0.0585474
0.00262904
0.00183752
6.45201e-05
-0.00244546
-0.00549634
-0.00885432
-0.0122566
-0.0154895
-0.0184741
-0.0213467
-0.024489
-0.0285414
-0.0345423
-0.041714
-0.0483097
-0.0534353
-0.0569422
-0.0590071
-0.0597187
-0.0588633
0.00307204
0.00218451
0.000358301
-0.00219847
-0.00522714
-0.00849687
-0.011758
-0.0148886
-0.0178478
-0.0208862
-0.0245352
-0.029606
-0.0368274
-0.0440379
-0.050051
-0.0545094
-0.057535
-0.0593686
-0.0600445
-0.0592623
0.00347998
0.00259007
0.000687225
-0.00194701
-0.00501131
-0.00825654
-0.0114744
-0.0145811
-0.0176261
-0.0209134
-0.0251539
-0.0313625
-0.0386332
-0.0452837
-0.0505537
-0.0544525
-0.057266
-0.0591885
-0.0601286
-0.0596512
0.00394945
0.0030513
0.00106096
-0.0016658
-0.00484393
-0.00818876
-0.0115388
-0.0148147
-0.0181333
-0.021852
-0.0267639
-0.0331368
-0.0395275
-0.0450275
-0.0493968
-0.0528615
-0.0557211
-0.0580393
-0.0595531
-0.0596671
0.0044641
0.00353013
0.00145608
-0.0013913
-0.00475296
-0.00834971
-0.0120469
-0.0157868
-0.0196603
-0.0239671
-0.0291176
-0.0344746
-0.0392217
-0.0431339
-0.0464279
-0.0494505
-0.0524201
-0.0552424
-0.0574901
-0.0584314
0.00490742
0.00397526
0.00182381
-0.00119124
-0.00480763
-0.00880203
-0.0130738
-0.017596
-0.0223311
-0.0272017
-0.0317628
-0.0353935
-0.037988
-0.0399546
-0.0418826
-0.0441749
-0.0469358
-0.0499629
-0.0527622
-0.0545761
0.00527606
0.00434647
0.00210506
-0.0011264
-0.0050764
-0.00960015
-0.0146457
-0.0201918
-0.0259383
-0.0311353
-0.0348225
-0.036581
-0.0368818
-0.0366403
-0.0367663
-0.0377338
-0.0395287
-0.0419054
-0.0445507
-0.0470657
0.00561174
0.00462844
0.00225244
-0.00123233
-0.00559189
-0.0107348
-0.0166269
-0.0231299
-0.0297022
-0.0352704
-0.0385637
-0.0390384
-0.0375521
-0.0353863
-0.0335403
-0.0325818
-0.0325647
-0.0332023
-0.034183
-0.0354453
0.0058683
0.00480978
0.00226045
-0.00151134
-0.00631756
-0.0120588
-0.0185969
-0.0256104
-0.0325388
-0.0384918
-0.0420841
-0.0423733
-0.0402696
-0.0370737
-0.0338712
-0.0312268
-0.0292873
-0.0280588
-0.0276789
-0.0285483
0.00600265
0.00488546
0.00216307
-0.0019034
-0.0071138
-0.0132839
-0.0201294
-0.0271873
-0.0339063
-0.0396849
-0.0438674
-0.0457922
-0.0448136
-0.0421413
-0.0391705
-0.0360063
-0.032705
-0.0300083
-0.0286173
-0.0289806
0.00596983
0.00486442
0.00201405
-0.00229842
-0.00777305
-0.0141449
-0.02104
-0.0279671
-0.0344219
-0.0399342
-0.0441092
-0.0467141
-0.0478176
-0.0480085
-0.0476478
-0.0458939
-0.0422491
-0.0389336
-0.0372925
-0.037342
0.00579734
0.00478568
0.00186168
-0.0025937
-0.00815392
-0.0145569
-0.021415
-0.0283163
-0.0348333
-0.040562
-0.04524
-0.0487801
-0.0512244
-0.0525567
-0.0527885
-0.0519756
-0.0506126
-0.0496002
-0.0494486
-0.0497177
0.00581464
0.00472697
0.00172655
-0.00274952
-0.00828644
-0.0146466
-0.0215141
-0.0285804
-0.0355215
-0.0419493
-0.0475889
-0.0522739
-0.0559217
-0.0584572
-0.0599997
-0.0607029
-0.060782
-0.060382
-0.0595662
-0.05808
0.00597428
0.00470863
0.00164616
-0.0028061
-0.00832157
-0.0146697
-0.021613
-0.0289325
-0.036404
-0.0437256
-0.0506191
-0.0568562
-0.0621636
-0.0664823
-0.0699882
-0.0727364
-0.0744324
-0.0744403
-0.071989
-0.0665227
-0.0347577
-0.0330156
-0.0312103
-0.0297864
-0.028861
-0.0283534
-0.0280987
-0.0279581
-0.0278625
-0.0277916
-0.0277843
-0.0278815
-0.0280953
-0.0283993
-0.0287634
-0.0291384
-0.0294921
-0.0298092
-0.0300929
-0.0303583
-0.030611
-0.0308894
-0.0312257
-0.0316596
-0.0321625
-0.0326737
-0.0330887
-0.033303
-0.0332328
-0.0328544
-0.0322549
-0.031534
-0.030799
-0.0300938
-0.0294341
-0.0287975
-0.0282203
-0.0277226
-0.0272517
-0.0268231
-0.0264141
-0.0260213
-0.0256502
-0.0253064
-0.0249691
-0.0246181
-0.0242786
-0.0238941
-0.0234913
-0.0231075
-0.0227092
-0.0223326
-0.0219576
-0.0215649
-0.0211647
-0.0207426
-0.020318
-0.0198842
-0.0194655
-0.0190552
-0.0186111
-0.0181892
-0.0177297
-0.0172491
-0.016844
-0.0163618
-0.015867
-0.0154582
-0.0149685
-0.0144695
-0.0139765
-0.0134484
-0.0130268
-0.0125257
-0.0119088
-0.0114414
-0.0109589
-0.0103508
-0.00981942
-0.00929729
-0.00869302
-0.00810851
-0.00755086
-0.00695827
-0.00633345
-0.00570103
-0.00509732
-0.004469
-0.00380022
-0.0031336
-0.00248682
-0.00180405
-0.00111505
-0.000423981
0.000256079
0.000952143
0.00160888
0.00225837
0.00280566
0.00329614
-0.0349308
-0.0332199
-0.0313817
-0.0299245
-0.0289686
-0.028433
-0.0281566
-0.028001
-0.0278967
-0.0278237
-0.0278174
-0.0279152
-0.0281297
-0.0284339
-0.0287978
-0.0291718
-0.0295249
-0.029841
-0.0301225
-0.0303853
-0.0306342
-0.0309078
-0.0312368
-0.0316604
-0.0321502
-0.0326461
-0.033047
-0.0332542
-0.033186
-0.0328168
-0.0322289
-0.0315169
-0.0307876
-0.0300857
-0.0294284
-0.0287933
-0.0282169
-0.0277199
-0.0272489
-0.0268206
-0.0264121
-0.02602
-0.0256493
-0.0253052
-0.024967
-0.0246156
-0.0242764
-0.0238916
-0.0234892
-0.0231063
-0.022708
-0.0223312
-0.0219558
-0.0215631
-0.0211633
-0.0207412
-0.0203168
-0.0198833
-0.0194645
-0.0190541
-0.0186101
-0.0181885
-0.0177288
-0.0172481
-0.0168436
-0.0163612
-0.015866
-0.0154576
-0.0149681
-0.014469
-0.013976
-0.0134477
-0.0130265
-0.0125254
-0.0119081
-0.0114411
-0.0109587
-0.0103503
-0.00981912
-0.00929715
-0.00869275
-0.00810825
-0.00755069
-0.00695812
-0.00633329
-0.00570084
-0.00509721
-0.00446892
-0.0038001
-0.00313347
-0.00248675
-0.00180397
-0.00111497
-0.000423891
0.000256132
0.000952278
0.00160894
0.00225863
0.00280617
0.00329635
-0.0351778
-0.0334927
-0.0316166
-0.0301136
-0.0291111
-0.0285282
-0.0282132
-0.0280317
-0.0279136
-0.0278394
-0.0278393
-0.0279435
-0.0281637
-0.0284726
-0.0288387
-0.0292137
-0.0295676
-0.0298844
-0.0301646
-0.0304233
-0.0306666
-0.0309327
-0.0312502
-0.0316549
-0.0321198
-0.0325872
-0.032962
-0.0331542
-0.0330877
-0.0327352
-0.0321697
-0.0314775
-0.0307619
-0.0300687
-0.0294166
-0.0287854
-0.0282117
-0.0277157
-0.0272453
-0.0268175
-0.0264101
-0.0260192
-0.0256494
-0.0253054
-0.0249665
-0.0246136
-0.0242733
-0.0238881
-0.0234857
-0.023104
-0.0227069
-0.02233
-0.0219538
-0.0215605
-0.0211606
-0.0207387
-0.0203148
-0.0198816
-0.0194631
-0.0190527
-0.0186082
-0.0181867
-0.0177273
-0.0172465
-0.0168425
-0.0163603
-0.0158648
-0.0154563
-0.0149666
-0.0144681
-0.0139755
-0.0134465
-0.0130256
-0.0125248
-0.0119072
-0.0114404
-0.0109582
-0.0103496
-0.00981853
-0.00929666
-0.0086922
-0.00810779
-0.00755028
-0.00695772
-0.00633294
-0.00570048
-0.00509693
-0.00446866
-0.00379983
-0.00313321
-0.00248658
-0.00180374
-0.00111476
-0.000423644
0.000256353
0.000952656
0.00160937
0.0022593
0.00280829
0.00329805
-0.035434
-0.0337719
-0.0318761
-0.0303322
-0.0292759
-0.02863
-0.0282587
-0.0280389
-0.0279014
-0.0278261
-0.0278374
-0.027955
-0.0281874
-0.0285066
-0.0288783
-0.0292563
-0.0296121
-0.0299307
-0.0302086
-0.030462
-0.0306987
-0.0309562
-0.0312582
-0.031637
-0.0320682
-0.0324975
-0.0328401
-0.0330125
-0.0329499
-0.0326211
-0.0320869
-0.0314234
-0.0307268
-0.0300458
-0.0293999
-0.0287754
-0.0282059
-0.0277107
-0.0272414
-0.0268135
-0.026407
-0.0260174
-0.0256485
-0.0253056
-0.0249676
-0.0246121
-0.0242684
-0.0238836
-0.0234805
-0.0230995
-0.0227047
-0.0223278
-0.0219523
-0.0215574
-0.0211555
-0.0207349
-0.0203113
-0.0198784
-0.0194614
-0.0190507
-0.0186048
-0.0181838
-0.0177257
-0.017244
-0.0168393
-0.0163594
-0.0158645
-0.0154537
-0.0149633
-0.0144667
-0.0139751
-0.0134451
-0.0130232
-0.0125233
-0.0119065
-0.0114389
-0.0109565
-0.0103486
-0.00981745
-0.00929522
-0.00869119
-0.00810702
-0.00754926
-0.00695668
-0.00633218
-0.00569976
-0.00509622
-0.00446792
-0.00379921
-0.00313265
-0.00248608
-0.00180314
-0.00111424
-0.000423084
0.000256988
0.000953417
0.00161058
0.00226053
0.00281288
0.00330245
-0.0356555
-0.0340365
-0.0321576
-0.0305902
-0.029477
-0.0287531
-0.028305
-0.0280303
-0.0278655
-0.0277889
-0.0278166
-0.0279552
-0.0282068
-0.028542
-0.0289228
-0.0293043
-0.029662
-0.0299811
-0.0302551
-0.0305013
-0.0307305
-0.0309769
-0.0312588
-0.0316072
-0.031999
-0.0323859
-0.0326933
-0.032845
-0.0327893
-0.0324897
-0.0319944
-0.0313656
-0.0306918
-0.0300244
-0.0293841
-0.028767
-0.0282019
-0.0277078
-0.0272396
-0.0268099
-0.0264033
-0.0260157
-0.0256498
-0.0253069
-0.0249686
-0.0246102
-0.0242621
-0.0238781
-0.0234746
-0.0230948
-0.0227023
-0.0223246
-0.0219497
-0.0215531
-0.0211489
-0.0207299
-0.0203072
-0.0198749
-0.0194589
-0.0190477
-0.0185999
-0.0181795
-0.0177244
-0.0172405
-0.0168337
-0.0163585
-0.0158648
-0.0154495
-0.0149584
-0.0144643
-0.0139749
-0.0134436
-0.0130186
-0.0125206
-0.0119063
-0.0114363
-0.0109533
-0.0103475
-0.00981574
-0.00929241
-0.00868961
-0.00810585
-0.00754738
-0.00695473
-0.00633086
-0.00569858
-0.00509489
-0.00446646
-0.00379809
-0.00313166
-0.00248503
-0.00180204
-0.00111322
-0.00042209
0.000258266
0.000954666
0.00161287
0.00226252
0.00282024
0.00331028
-0.0358275
-0.0342826
-0.0324685
-0.0309028
-0.0297317
-0.0289144
-0.0283679
-0.0280183
-0.027816
-0.0277381
-0.0277871
-0.0279537
-0.028231
-0.028587
-0.0289793
-0.0293644
-0.0297217
-0.0300391
-0.0303073
-0.0305445
-0.0307636
-0.0309948
-0.0312539
-0.0315692
-0.0319195
-0.032263
-0.0325342
-0.0326656
-0.0326172
-0.03235
-0.031898
-0.0313093
-0.0306623
-0.030009
-0.0293728
-0.0287607
-0.0281995
-0.0277071
-0.0272399
-0.0268068
-0.0263987
-0.0260138
-0.025653
-0.0253107
-0.0249693
-0.0246069
-0.0242542
-0.0238707
-0.0234678
-0.0230904
-0.0227014
-0.0223218
-0.0219455
-0.0215476
-0.0211414
-0.020723
-0.0203022
-0.0198717
-0.0194563
-0.0190443
-0.0185941
-0.0181735
-0.0177225
-0.017237
-0.016827
-0.0163575
-0.0158651
-0.0154439
-0.0149521
-0.0144613
-0.0139748
-0.013442
-0.0130121
-0.012517
-0.0119068
-0.0114327
-0.0109486
-0.0103464
-0.0098135
-0.00928837
-0.00868753
-0.00810432
-0.0075447
-0.00695197
-0.006329
-0.00569693
-0.00509293
-0.00446431
-0.00379645
-0.00313025
-0.00248343
-0.00180042
-0.00111166
-0.000420659
0.000260235
0.000956422
0.00161628
0.00226542
0.00283006
0.00332123
-0.0359251
-0.0345068
-0.0328087
-0.0312731
-0.0300445
-0.029119
-0.0284535
-0.0280094
-0.0277589
-0.0276789
-0.0277532
-0.0279536
-0.0282632
-0.0286438
-0.0290493
-0.0294384
-0.029793
-0.0301062
-0.0303665
-0.0305921
-0.0307969
-0.0310096
-0.0312446
-0.0315257
-0.0318349
-0.0321352
-0.0323728
-0.032484
-0.0324418
-0.0322065
-0.0317977
-0.0312534
-0.0306364
-0.0299999
-0.0293671
-0.0287571
-0.0281987
-0.0277063
-0.02724
-0.0268034
-0.0263944
-0.0260117
-0.0256555
-0.0253153
-0.0249708
-0.0246035
-0.024245
-0.0238615
-0.0234589
-0.0230846
-0.0227018
-0.02232
-0.0219406
-0.0215413
-0.0211332
-0.0207151
-0.0202958
-0.0198678
-0.0194536
-0.0190408
-0.0185886
-0.0181668
-0.0177191
-0.017233
-0.0168202
-0.0163566
-0.0158653
-0.0154372
-0.0149449
-0.014458
-0.0139749
-0.0134403
-0.0130045
-0.0125127
-0.0119076
-0.0114285
-0.010943
-0.0103453
-0.00981088
-0.00928351
-0.00868515
-0.00810257
-0.00754146
-0.00694869
-0.00632678
-0.00569496
-0.00509054
-0.00446171
-0.00379444
-0.00312854
-0.0024814
-0.00179843
-0.00110968
-0.000418892
0.000262772
0.00095863
0.0016206
0.00226932
0.00284161
0.00333429
-0.0359318
-0.034708
-0.0331711
-0.0316902
-0.0304033
-0.0293545
-0.0285525
-0.0279985
-0.0276908
-0.0276072
-0.0277098
-0.0279505
-0.0282996
-0.0287098
-0.0291305
-0.0295242
-0.0298752
-0.0301808
-0.0304295
-0.0306394
-0.0308257
-0.031018
-0.0312271
-0.0314738
-0.0317434
-0.032004
-0.032213
-0.0323064
-0.0322693
-0.0320619
-0.0316928
-0.0311921
-0.030607
-0.0299909
-0.0293645
-0.0287572
-0.0281992
-0.0277031
-0.0272365
-0.0267984
-0.0263906
-0.0260106
-0.025657
-0.0253171
-0.0249712
-0.0246004
-0.0242354
-0.0238523
-0.0234494
-0.0230765
-0.0227006
-0.0223184
-0.0219364
-0.0215345
-0.0211238
-0.0207076
-0.0202895
-0.0198626
-0.0194495
-0.0190366
-0.0185832
-0.0181603
-0.0177155
-0.0172282
-0.0168125
-0.0163555
-0.0158657
-0.0154299
-0.0149373
-0.0144543
-0.0139743
-0.0134386
-0.0129967
-0.0125078
-0.0119084
-0.0114238
-0.0109368
-0.0103442
-0.00980807
-0.00927803
-0.00868254
-0.00810072
-0.00753786
-0.00694508
-0.00632433
-0.00569277
-0.00508789
-0.00445884
-0.00379216
-0.00312666
-0.00247909
-0.00179621
-0.00110738
-0.000416897
0.000265741
0.000961221
0.0016256
0.00227423
0.00285414
0.00334853
-0.0359858
-0.0349124
-0.0335604
-0.032145
-0.0307893
-0.0295978
-0.028644
-0.0279715
-0.0276039
-0.0275172
-0.0276526
-0.0279423
-0.0283386
-0.0287841
-0.0292222
-0.02962
-0.0299664
-0.0302599
-0.0304918
-0.0306818
-0.0308474
-0.0310168
-0.0311975
-0.0314089
-0.0316416
-0.0318675
-0.0320525
-0.032133
-0.0321006
-0.0319182
-0.0315839
-0.0311215
-0.0305682
-0.0299747
-0.0293589
-0.0287578
-0.0281991
-0.0276966
-0.0272283
-0.0267894
-0.0263845
-0.0260089
-0.0256589
-0.0253169
-0.0249679
-0.0245952
-0.024224
-0.0238428
-0.023442
-0.0230683
-0.0226964
-0.022314
-0.0219314
-0.0215277
-0.0211133
-0.0206995
-0.0202846
-0.0198576
-0.0194437
-0.019031
-0.0185765
-0.0181526
-0.0177127
-0.0172243
-0.016803
-0.0163531
-0.0158662
-0.0154223
-0.0149293
-0.0144504
-0.0139732
-0.0134365
-0.0129883
-0.0125023
-0.0119094
-0.0114189
-0.0109296
-0.0103431
-0.00980524
-0.00927189
-0.00867954
-0.00809875
-0.00753394
-0.00694111
-0.00632158
-0.00569035
-0.00508498
-0.00445572
-0.00378958
-0.0031246
-0.00247651
-0.00179378
-0.00110476
-0.000414703
0.000269114
0.000964191
0.00163116
0.00228013
0.00286715
0.00336355
-0.0361264
-0.0351834
-0.0340125
-0.0326387
-0.0311841
-0.0298256
-0.028708
-0.027918
-0.0274963
-0.0274121
-0.0275878
-0.0279356
-0.0283862
-0.0288711
-0.0293278
-0.029729
-0.0300682
-0.0303463
-0.0305566
-0.0307237
-0.0308665
-0.0310089
-0.0311589
-0.0313334
-0.0315311
-0.0317246
-0.0318882
-0.0319603
-0.0319344
-0.0317769
-0.031474
-0.0310461
-0.0305225
-0.0299499
-0.0293455
-0.0287527
-0.0281962
-0.027689
-0.0272185
-0.0267763
-0.0263736
-0.0260035
-0.02566
-0.0253189
-0.0249645
-0.0245873
-0.024209
-0.0238302
-0.0234351
-0.0230626
-0.0226934
-0.0223076
-0.0219228
-0.0215202
-0.0211027
-0.0206889
-0.0202785
-0.0198543
-0.0194394
-0.0190253
-0.0185682
-0.0181421
-0.0177092
-0.017222
-0.0167933
-0.0163495
-0.015867
-0.0154143
-0.0149199
-0.0144459
-0.013973
-0.013435
-0.0129781
-0.0124954
-0.0119115
-0.011414
-0.0109212
-0.0103418
-0.00980258
-0.00926522
-0.00867617
-0.00809667
-0.0075297
-0.00693681
-0.00631856
-0.00568773
-0.00508184
-0.00445236
-0.0037867
-0.0031224
-0.00247365
-0.00179117
-0.00110181
-0.000412333
0.000272884
0.000967543
0.00163724
0.00228698
0.00288039
0.00337934
-0.0363513
-0.0356208
-0.0345791
-0.0331637
-0.031554
-0.0300042
-0.0287212
-0.0278269
-0.0273661
-0.0272964
-0.0275226
-0.0279369
-0.0284473
-0.0289736
-0.0294514
-0.0298569
-0.0301856
-0.030445
-0.0306309
-0.030772
-0.0308869
-0.0309984
-0.0311172
-0.0312543
-0.0314167
-0.0315782
-0.0317216
-0.0317879
-0.0317702
-0.0316372
-0.0313638
-0.0309704
-0.0304744
-0.0299201
-0.0293258
-0.0287405
-0.02819
-0.0276816
-0.027209
-0.0267625
-0.0263597
-0.0259944
-0.0256579
-0.0253214
-0.0249645
-0.0245807
-0.0241923
-0.0238144
-0.0234251
-0.0230562
-0.0226936
-0.0223043
-0.0219127
-0.0215102
-0.0210928
-0.0206775
-0.0202682
-0.0198495
-0.0194371
-0.0190212
-0.0185607
-0.018131
-0.0177035
-0.0172187
-0.0167836
-0.0163458
-0.0158685
-0.0154064
-0.0149091
-0.0144399
-0.0139731
-0.0134351
-0.0129672
-0.0124869
-0.0119139
-0.0114095
-0.0109119
-0.0103402
-0.00979988
-0.00925806
-0.00867261
-0.00809455
-0.00752513
-0.00693222
-0.00631534
-0.00568497
-0.0050785
-0.00444879
-0.00378357
-0.00312012
-0.00247056
-0.00178841
-0.00109857
-0.000409811
0.000277009
0.000971285
0.00164381
0.00229471
0.00289377
0.00339586
-0.0371439
-0.0364175
-0.0352924
-0.033682
-0.0318398
-0.0300803
-0.0286468
-0.0276744
-0.0271985
-0.0271617
-0.0274522
-0.0279431
-0.0285189
-0.0290897
-0.0295924
-0.030005
-0.0303209
-0.0305563
-0.030716
-0.0308261
-0.0309071
-0.0309859
-0.0310742
-0.0311751
-0.0313015
-0.0314324
-0.0315558
-0.0316171
-0.0316065
-0.0314947
-0.0312507
-0.0308917
-0.0304241
-0.0298886
-0.0293051
-0.0287261
-0.0281808
-0.0276718
-0.0271981
-0.0267499
-0.0263472
-0.0259842
-0.0256526
-0.0253193
-0.0249631
-0.0245777
-0.0241788
-0.0237983
-0.0234129
-0.0230454
-0.022691
-0.0223043
-0.021906
-0.0214989
-0.0210808
-0.0206667
-0.020258
-0.0198414
-0.0194307
-0.0190165
-0.0185556
-0.018121
-0.0176966
-0.0172139
-0.0167729
-0.0163418
-0.0158692
-0.0153979
-0.0148989
-0.0144331
-0.013971
-0.013435
-0.0129571
-0.0124777
-0.0119156
-0.0114044
-0.010902
-0.0103386
-0.00979676
-0.00924989
-0.00866869
-0.00809239
-0.00752011
-0.00692719
-0.00631176
-0.00568195
-0.00507484
-0.00444491
-0.00378005
-0.00311764
-0.00246714
-0.00178537
-0.00109496
-0.000406996
0.000281557
0.000975563
0.00165092
0.00230334
0.0029074
0.00341327
-0.0385526
-0.0376607
-0.0361485
-0.0341377
-0.0319757
-0.0299953
-0.0284384
-0.0274235
-0.0269647
-0.0269858
-0.0273606
-0.027942
-0.0285911
-0.029211
-0.0297422
-0.0301649
-0.0304677
-0.0306755
-0.0308067
-0.0308823
-0.030927
-0.0309721
-0.0310291
-0.0310938
-0.0311852
-0.0312878
-0.0313907
-0.0314469
-0.0314405
-0.0313473
-0.0311332
-0.0308061
-0.0303682
-0.0298538
-0.029284
-0.0287135
-0.0281697
-0.0276586
-0.0271853
-0.0267387
-0.0263384
-0.0259766
-0.0256465
-0.0253129
-0.024956
-0.0245735
-0.0241681
-0.0237836
-0.0234022
-0.0230344
-0.0226836
-0.0223017
-0.0219019
-0.0214895
-0.0210665
-0.020654
-0.0202522
-0.0198365
-0.0194189
-0.0190063
-0.0185511
-0.0181117
-0.0176889
-0.0172095
-0.0167627
-0.0163377
-0.0158687
-0.015387
-0.0148891
-0.0144281
-0.0139677
-0.0134327
-0.0129462
-0.0124688
-0.0119177
-0.0113981
-0.0108909
-0.0103376
-0.00979385
-0.00924074
-0.00866418
-0.00809018
-0.00751477
-0.00692179
-0.00630781
-0.0056787
-0.00507092
-0.00444077
-0.00377617
-0.00311498
-0.00246343
-0.00178203
-0.00109103
-0.000403836
0.000286465
0.000980437
0.00165854
0.00231279
0.00292133
0.00343139
-0.040745
-0.0393166
-0.0370801
-0.0344835
-0.0319202
-0.0297096
-0.0280581
-0.0270416
-0.026639
-0.0267504
-0.027233
-0.0279191
-0.0286501
-0.0293235
-0.0298848
-0.0303189
-0.0306123
-0.0307947
-0.0308952
-0.0309367
-0.0309471
-0.0309557
-0.0309779
-0.031006
-0.0310649
-0.0311412
-0.0312218
-0.0312738
-0.0312708
-0.0311956
-0.0310104
-0.0307104
-0.0303007
-0.0298068
-0.0292548
-0.028697
-0.0281552
-0.0276428
-0.0271707
-0.0267274
-0.0263314
-0.0259718
-0.0256415
-0.0253047
-0.0249444
-0.024562
-0.0241533
-0.023768
-0.0233915
-0.0230256
-0.0226769
-0.0222956
-0.0218941
-0.0214802
-0.0210521
-0.020637
-0.0202447
-0.0198372
-0.0194105
-0.0189925
-0.0185429
-0.0181004
-0.0176792
-0.0172044
-0.0167523
-0.0163337
-0.0158692
-0.0153751
-0.0148764
-0.0144224
-0.0139662
-0.0134311
-0.0129325
-0.012458
-0.0119213
-0.0113921
-0.0108775
-0.010336
-0.0097914
-0.00923125
-0.00865908
-0.00808762
-0.00750899
-0.00691607
-0.00630344
-0.00567515
-0.00506668
-0.00443634
-0.00377192
-0.00311213
-0.00245945
-0.00177835
-0.00108683
-0.000400262
0.000291681
0.000985968
0.00166663
0.00232303
0.00293563
0.00345018
-0.0429286
-0.0410417
-0.0379995
-0.0347081
-0.0316837
-0.0292338
-0.0275096
-0.0265321
-0.0262292
-0.0264668
-0.0270775
-0.0278762
-0.028693
-0.0294225
-0.0300148
-0.0304592
-0.0307488
-0.0309109
-0.0309807
-0.0309892
-0.0309674
-0.0309376
-0.030923
-0.0309166
-0.0309436
-0.0309941
-0.0310507
-0.031099
-0.031101
-0.0310423
-0.0308826
-0.0306063
-0.0302228
-0.0297466
-0.0292145
-0.0286704
-0.0281322
-0.0276225
-0.0271514
-0.0267142
-0.0263244
-0.0259701
-0.025642
-0.0252991
-0.0249316
-0.0245437
-0.0241316
-0.0237503
-0.0233801
-0.0230156
-0.0226694
-0.0222898
-0.0218835
-0.0214674
-0.02104
-0.0206194
-0.0202284
-0.0198344
-0.019409
-0.0189835
-0.0185322
-0.0180859
-0.017669
-0.0171993
-0.0167388
-0.0163262
-0.0158705
-0.0153661
-0.0148629
-0.0144124
-0.0139642
-0.013433
-0.0129184
-0.0124435
-0.011925
-0.0113878
-0.0108633
-0.0103329
-0.00978833
-0.00922149
-0.00865394
-0.0080849
-0.00750263
-0.00690995
-0.00629869
-0.00567133
-0.00506206
-0.00443151
-0.00376722
-0.00310902
-0.00245518
-0.00177421
-0.00108236
-0.000396185
0.000297238
0.000992238
0.00167528
0.00233406
0.00295047
0.00346974
-0.0451495
-0.0427034
-0.0388376
-0.0348244
-0.0313194
-0.0286254
-0.0268442
-0.0259391
-0.025775
-0.0261699
-0.0269209
-0.0278325
-0.028734
-0.0295208
-0.0301434
-0.0305938
-0.0308795
-0.0310237
-0.0310638
-0.0310394
-0.0309862
-0.0309217
-0.0308732
-0.0308364
-0.0308288
-0.0308508
-0.0308847
-0.0309269
-0.0309341
-0.0308882
-0.0307512
-0.0304993
-0.0301412
-0.0296826
-0.0291687
-0.0286347
-0.0280988
-0.0275941
-0.027125
-0.0266949
-0.0263138
-0.0259688
-0.0256483
-0.0253008
-0.0249209
-0.0245218
-0.0241061
-0.0237309
-0.0233713
-0.023007
-0.0226561
-0.0222808
-0.0218725
-0.021452
-0.0210304
-0.0206053
-0.0202079
-0.019823
-0.0194034
-0.0189781
-0.0185253
-0.0180698
-0.0176581
-0.0171977
-0.0167262
-0.0163138
-0.0158672
-0.0153574
-0.014852
-0.0144013
-0.0139585
-0.0134353
-0.0129061
-0.0124277
-0.011927
-0.0113834
-0.0108494
-0.01033
-0.00978433
-0.00921036
-0.00864833
-0.00808223
-0.00749586
-0.00690332
-0.00629348
-0.00566735
-0.00505728
-0.0044263
-0.00376211
-0.00310563
-0.00245068
-0.0017696
-0.00107762
-0.000391557
0.000303166
0.000999278
0.00168451
0.00234589
0.00296592
0.00348982
-0.0473475
-0.0442264
-0.0395536
-0.0348518
-0.030886
-0.0279556
-0.0261305
-0.0253183
-0.0253178
-0.0258876
-0.0267857
-0.0278095
-0.0287939
-0.0296367
-0.0302845
-0.0307331
-0.0310056
-0.0311281
-0.0311394
-0.0310814
-0.0309978
-0.0309063
-0.0308297
-0.030766
-0.0307231
-0.0307153
-0.0307293
-0.0307601
-0.0307694
-0.0307332
-0.0306178
-0.0303907
-0.0300565
-0.0296169
-0.0291186
-0.0285942
-0.0280593
-0.0275599
-0.027094
-0.0266676
-0.0262943
-0.0259598
-0.0256507
-0.0253043
-0.0249131
-0.0244996
-0.0240781
-0.0237073
-0.0233613
-0.0230042
-0.0226453
-0.0222668
-0.0218553
-0.0214318
-0.0210194
-0.0205931
-0.0201908
-0.0198123
-0.0193881
-0.0189632
-0.0185211
-0.0180548
-0.0176408
-0.0171961
-0.0167206
-0.0163039
-0.0158592
-0.0153432
-0.0148407
-0.0143922
-0.013951
-0.0134341
-0.012893
-0.0124129
-0.0119286
-0.0113766
-0.0108338
-0.0103279
-0.009781
-0.0091981
-0.00864116
-0.00807888
-0.00748884
-0.00689622
-0.0062874
-0.00566279
-0.00505227
-0.00442068
-0.00375657
-0.00310182
-0.00244587
-0.00176433
-0.00107248
-0.000386253
0.000309615
0.00100716
0.00169442
0.00235855
0.00298199
0.00351037
-0.0493363
-0.0455487
-0.0401346
-0.0348182
-0.0304393
-0.0272978
-0.0254413
-0.0247283
-0.0248949
-0.0256414
-0.0266908
-0.0278291
-0.028895
-0.0297863
-0.0304491
-0.0308864
-0.0311337
-0.0312261
-0.0312049
-0.0311112
-0.0309962
-0.0308818
-0.0307801
-0.0306952
-0.0306258
-0.0305943
-0.0305916
-0.030607
-0.0306143
-0.030584
-0.0304886
-0.0302819
-0.0299669
-0.0295458
-0.0290615
-0.028551
-0.0280189
-0.0275267
-0.0270668
-0.0266407
-0.0262741
-0.0259438
-0.0256401
-0.0252966
-0.024902
-0.0244824
-0.0240545
-0.0236814
-0.0233426
-0.0230001
-0.0226455
-0.0222599
-0.0218373
-0.021407
-0.0210017
-0.020578
-0.0201778
-0.0198104
-0.0193744
-0.0189383
-0.0185133
-0.0180439
-0.0176178
-0.0171861
-0.0167173
-0.0163
-0.0158528
-0.0153283
-0.0148291
-0.0143827
-0.0139431
-0.0134324
-0.012878
-0.0123968
-0.0119317
-0.0113703
-0.0108155
-0.0103238
-0.00977841
-0.00918725
-0.00863375
-0.00807434
-0.0074814
-0.00688929
-0.00628096
-0.00565751
-0.0050468
-0.00441449
-0.00375067
-0.00309762
-0.00244079
-0.00175849
-0.00106699
-0.000380398
0.000316595
0.00101579
0.001705
0.00237195
0.00299869
0.00353137
-0.0510203
-0.0466271
-0.0405802
-0.0347487
-0.0300228
-0.0267072
-0.0248323
-0.0242142
-0.0245353
-0.0254484
-0.0266488
-0.0279039
-0.029048
-0.0299768
-0.0306454
-0.0310656
-0.0312807
-0.0313322
-0.0312663
-0.0311292
-0.0309754
-0.030834
-0.0307071
-0.0306077
-0.0305273
-0.0304833
-0.0304697
-0.0304717
-0.0304764
-0.0304479
-0.0303681
-0.0301767
-0.0298756
-0.0294722
-0.0289976
-0.028501
-0.0279737
-0.0274908
-0.0270434
-0.026622
-0.0262653
-0.0259328
-0.0256197
-0.0252712