/*--------------------------------*- C++ -*----------------------------------*\
  =========                 |
  \\      /  F ield         | OpenFOAM: The Open Source CFD Toolbox
   \\    /   O peration     | Website:  https://openfoam.org
    \\  /    A nd           | Version:  6
     \\/     M anipulation  |
\*---------------------------------------------------------------------------*/
FoamFile
{
    version     2.0;
    format      ascii;
    class       surfaceScalarField;
    location    "1";
    object      phi;
}
// * * * * * * * * * * * * * * * * * * * * * * * * * * * * * * * * * * * * * //

dimensions      [0 3 -1 0 0 0 0];

internalField   nonuniform List<scalar> 
9440
(
3.88241e-06
-1.33428e-08
3.88825e-06
3.83626e-08
3.89211e-06
-9.25321e-09
3.89918e-06
3.16777e-08
3.91422e-06
-2.30297e-08
3.91815e-06
1.76022e-08
3.9418e-06
-6.29179e-09
3.94726e-06
1.4251e-08
3.97915e-06
-8.88971e-09
3.97267e-06
1.54875e-08
4.01764e-06
-5.25087e-09
4.01395e-06
1.82177e-08
4.06777e-06
-8.27303e-09
4.08229e-06
1.45209e-08
4.09643e-06
-7.70041e-10
4.09087e-06
-1.85201e-08
4.09422e-06
-6.10247e-08
4.09916e-06
-7.42988e-08
4.10473e-06
-7.87406e-08
1.62119e-08
3.98725e-06
4.1839e-06
-1.1381e-08
4.1991e-06
2.31571e-08
4.19946e-06
-9.61391e-09
4.21636e-06
1.47855e-08
4.22647e-06
-3.31477e-08
4.24132e-06
2.75977e-09
4.25614e-06
-2.11199e-08
4.27558e-06
-5.18706e-09
4.2897e-06
-2.30109e-08
4.30278e-06
2.40997e-09
4.3053e-06
-7.76641e-09
4.31016e-06
1.33563e-08
4.30745e-06
-5.56496e-09
4.32351e-06
-1.53968e-09
4.34985e-06
-2.71064e-08
4.38089e-06
-4.95638e-08
4.4057e-06
-8.58289e-08
4.42022e-06
-8.88242e-08
4.43453e-06
-9.30481e-08
1.57357e-07
4.29338e-06
4.51793e-06
-9.24423e-09
4.53341e-06
7.66929e-09
4.53274e-06
-8.94425e-09
4.55037e-06
-2.83893e-09
4.56137e-06
-4.41545e-08
4.5754e-06
-1.12612e-08
4.59333e-06
-3.90586e-08
4.61304e-06
-2.48939e-08
4.63166e-06
-4.16274e-08
4.64375e-06
-9.68666e-09
4.65138e-06
-1.53963e-08
4.65413e-06
1.06122e-08
4.65912e-06
-1.05558e-08
4.68083e-06
-2.3246e-08
4.71719e-06
-6.34665e-08
4.75059e-06
-8.29722e-08
4.77266e-06
-1.07899e-07
4.77908e-06
-9.52445e-08
4.68335e-06
2.68246e-09
2.18938e-07
4.62177e-06
4.88033e-06
-8.63064e-09
4.89655e-06
-8.54188e-09
4.89284e-06
-5.23862e-09
4.9137e-06
-2.36973e-08
4.92341e-06
-5.38614e-08
4.93981e-06
-2.76678e-08
4.95758e-06
-5.68315e-08
4.97963e-06
-4.69401e-08
5.00034e-06
-6.23363e-08
5.01404e-06
-2.33855e-08
5.02672e-06
-2.80747e-08
5.03105e-06
6.28285e-09
5.04777e-06
-2.72797e-08
5.07901e-06
-5.4481e-08
5.1171e-06
-1.0156e-07
5.1518e-06
-1.17675e-07
5.16951e-06
-1.25603e-07
5.16469e-06
-9.04333e-08
4.96454e-06
2.0284e-07
2.1864e-07
4.96483e-06
5.27068e-06
-8.66418e-09
5.28904e-06
-2.68996e-08
5.28061e-06
3.18822e-09
5.30637e-06
-4.94536e-08
5.31283e-06
-6.03205e-08
5.33402e-06
-4.88609e-08
5.35008e-06
-7.28964e-08
5.37562e-06
-7.24787e-08
5.39645e-06
-8.31583e-08
5.41451e-06
-4.14552e-08
5.43175e-06
-4.53101e-08
5.44561e-06
-7.57769e-09
5.47562e-06
-5.72866e-08
5.51459e-06
-9.34555e-08
5.54678e-06
-1.33752e-07
5.58522e-06
-1.56108e-07
5.59091e-06
-1.31293e-07
5.31989e-06
1.80581e-07
5.34266e-06
1.80071e-07
2.18868e-07
5.34243e-06
5.69207e-06
-9.2698e-09
5.71143e-06
-4.62626e-08
5.69993e-06
1.4686e-08
5.72954e-06
-7.9066e-08
5.73236e-06
-6.31381e-08
5.7584e-06
-7.49022e-08
5.7729e-06
-8.7394e-08
5.80208e-06
-1.01661e-07
5.822e-06
-1.03075e-07
5.84765e-06
-6.71072e-08
5.86894e-06
-6.66019e-08
5.90234e-06
-4.09765e-08
5.94297e-06
-9.79139e-08
5.98236e-06
-1.32845e-07
6.00569e-06
-1.57083e-07
6.04703e-06
-1.97452e-07
5.74494e-06
1.70802e-07
5.7362e-06
1.89324e-07
5.7436e-06
1.7267e-07
2.05573e-07
5.75689e-06
6.14744e-06
-1.08353e-08
6.1652e-06
-6.4029e-08
6.1542e-06
2.56927e-08
6.18529e-06
-1.10162e-07
6.18536e-06
-6.32095e-08
6.21518e-06
-1.0472e-07
6.22868e-06
-1.00892e-07
6.26078e-06
-1.33761e-07
6.28033e-06
-1.22626e-07
6.31594e-06
-1.02723e-07
6.34505e-06
-9.57061e-08
6.40144e-06
-9.73644e-08
6.44793e-06
-1.44409e-07
6.48231e-06
-1.6722e-07
6.48964e-06
-1.64419e-07
6.25324e-06
3.89534e-08
6.19797e-06
2.26072e-07
6.18079e-06
2.06503e-07
6.17566e-06
1.77801e-07
1.72434e-07
6.2088e-06
6.63951e-06
-1.378e-08
6.65288e-06
-7.74028e-08
6.64647e-06
3.21069e-08
6.67597e-06
-1.39667e-07
6.67497e-06
-6.22106e-08
6.70757e-06
-1.37316e-07
6.72025e-06
-1.13574e-07
6.75476e-06
-1.68267e-07
6.77518e-06
-1.4305e-07
6.82278e-06
-1.50327e-07
6.86613e-06
-1.39055e-07
6.94127e-06
-1.725e-07
6.98718e-06
-1.90319e-07
7.014e-06
-1.94041e-07
6.97658e-06
-1.27005e-07
6.71037e-06
3.05168e-07
6.68354e-06
2.52901e-07
6.66429e-06
2.25752e-07
6.63439e-06
2.07699e-07
-2.19619e-07
7.02645e-06
7.17147e-06
-1.88183e-08
7.17523e-06
-8.11628e-08
7.18137e-06
2.5965e-08
7.20316e-06
-1.6146e-07
7.20563e-06
-6.46729e-08
7.23825e-06
-1.69943e-07
7.2514e-06
-1.26724e-07
7.28804e-06
-2.04901e-07
7.30979e-06
-1.64805e-07
7.37428e-06
-2.14813e-07
7.42906e-06
-1.93834e-07
7.52082e-06
-2.6426e-07
7.55611e-06
-2.25608e-07
7.55031e-06
-1.88243e-07
7.16858e-06
2.54718e-07
7.22665e-06
2.47097e-07
7.21388e-06
2.65672e-07
7.18978e-06
2.4986e-07
7.1459e-06
2.51572e-07
-2.8881e-07
7.21509e-06
7.74704e-06
-2.7256e-08
7.72918e-06
-6.33015e-08
7.7662e-06
-1.10518e-08
7.76705e-06
-1.62314e-07
7.78495e-06
-8.25678e-08
7.80773e-06
-1.92724e-07
7.82921e-06
-1.48204e-07
7.86168e-06
-2.37371e-07
7.89238e-06
-1.9551e-07
7.96566e-06
-2.88093e-07
8.03114e-06
-2.5931e-07
8.12613e-06
-3.59257e-07
8.09672e-06
-1.96196e-07
7.72215e-06
1.86332e-07
7.74089e-06
2.35979e-07
7.77704e-06
2.1094e-07
7.79035e-06
2.52368e-07
7.77582e-06
2.64393e-07
7.68531e-06
3.42082e-07
-3.94229e-07
7.79072e-06
8.36848e-06
-3.92789e-08
8.32012e-06
-1.49368e-08
8.40396e-06
-9.48904e-08
8.37145e-06
-1.29802e-07
8.42005e-06
-1.3117e-07
8.41791e-06
-1.90584e-07
8.46198e-06
-1.92281e-07
8.47637e-06
-2.51752e-07
8.53431e-06
-2.53455e-07
8.57336e-06
-3.2714e-07
8.6551e-06
-3.4105e-07
8.56264e-06
-2.668e-07
8.35413e-06
1.2311e-08
8.32419e-06
2.16274e-07
8.3488e-06
2.11372e-07
8.37044e-06
1.89295e-07
8.41207e-06
2.10742e-07
8.43477e-06
2.41692e-07
8.90291e-06
-1.26054e-07
-3.96947e-07
8.90563e-06
9.03566e-06
-5.12955e-08
8.97394e-06
4.67857e-08
9.08148e-06
-2.02434e-07
9.0294e-06
-7.77185e-08
9.10138e-06
-2.03146e-07
9.07859e-06
-1.67794e-07
9.1446e-06
-2.58289e-07
9.13951e-06
-2.46666e-07
9.22151e-06
-3.35457e-07
9.20037e-06
-3.05994e-07
9.21166e-06
-3.52339e-07
9.07094e-06
-1.26088e-07
8.98253e-06
1.00729e-07
8.97849e-06
2.20305e-07
8.99833e-06
1.91536e-07
9.00847e-06
1.79157e-07
9.08193e-06
1.37279e-07
9.15396e-06
1.69664e-07
9.58463e-06
-5.5672e-07
-4.44218e-07
9.6319e-06
9.75012e-06
-5.73113e-08
9.71698e-06
7.99242e-08
9.78859e-06
-2.7404e-07
9.75466e-06
-4.37934e-08
9.81586e-06
-2.64348e-07
9.8017e-06
-1.53632e-07
9.86308e-06
-3.19663e-07
9.86255e-06
-2.46144e-07
9.91799e-06
-3.90896e-07
9.88766e-06
-2.75658e-07
9.82298e-06
-2.87667e-07
9.72676e-06
-2.9865e-08
9.68204e-06
1.45445e-07
9.68831e-06
2.14036e-07
9.69613e-06
1.83716e-07
9.6917e-06
1.83588e-07
9.8067e-06
2.2281e-08
1.05508e-05
-5.74431e-07
1.05059e-05
-5.11862e-07
-3.34103e-07
1.03958e-05
1.05194e-05
-5.46794e-08
1.055e-05
4.93955e-08
1.05357e-05
-2.59768e-07
1.05547e-05
-6.27914e-08
1.05751e-05
-2.8472e-07
1.05973e-05
-1.75816e-07
1.06259e-05
-3.48283e-07
1.06515e-05
-2.71771e-07
1.06514e-05
-3.90759e-07
1.0636e-05
-2.60336e-07
1.0541e-05
-1.92622e-07
1.04597e-05
5.13969e-08
1.0441e-05
1.64209e-07
1.04551e-05
1.99915e-07
1.04532e-05
1.85641e-07
1.04245e-05
2.12278e-07
1.06207e-05
-1.73925e-07
1.06016e-05
-5.55304e-07
1.0517e-05
-4.27319e-07
-4.4832e-07
1.06312e-05
1.13542e-05
-4.67004e-08
1.14281e-05
-2.45064e-08
1.13543e-05
-1.8601e-07
1.14182e-05
-1.26678e-07
1.14028e-05
-2.69324e-07
1.1459e-05
-2.31977e-07
1.14529e-05
-3.42178e-07
1.14937e-05
-3.12582e-07
1.14583e-05
-3.55322e-07
1.14366e-05
-2.38668e-07
1.13263e-05
-8.23782e-08
1.12722e-05
1.05519e-07
1.12611e-05
1.75313e-07
1.1277e-05
1.84007e-07
1.12714e-05
1.91226e-07
1.12373e-05
2.46462e-07
1.14655e-05
-4.02159e-07
1.14173e-05
-5.07082e-07
1.14384e-05
-4.48455e-07
-4.92234e-07
1.14823e-05
1.22624e-05
-3.9799e-08
1.23358e-05
-9.78803e-08
1.22611e-05
-1.11316e-07
1.23341e-05
-1.99639e-07
1.23115e-05
-2.46778e-07
1.23742e-05
-2.9466e-07
1.2354e-05
-3.21927e-07
1.23826e-05
-3.41186e-07
1.23415e-05
-3.1425e-07
1.22889e-05
-1.86042e-07
1.21897e-05
1.67459e-08
1.21591e-05
1.36138e-07
1.21493e-05
1.85098e-07
1.21553e-05
1.78066e-07
1.21487e-05
1.97853e-07
1.21598e-05
2.35315e-07
1.2354e-05
-5.96332e-07
1.23773e-05
-5.30375e-07
1.24109e-05
-4.82118e-07
-5.147e-07
1.24334e-05
1.32489e-05
-3.98047e-08
1.32817e-05
-1.30651e-07
1.32628e-05
-9.24276e-08
1.33056e-05
-2.42405e-07
1.33084e-05
-2.49597e-07
1.33449e-05
-3.31204e-07
1.33349e-05
-3.11845e-07
1.3335e-05
-3.41312e-07
1.32927e-05
-2.71996e-07
1.32101e-05
-1.03361e-07
1.31389e-05
8.78959e-08
1.31171e-05
1.57919e-07
1.31114e-05
1.90826e-07
1.31016e-05
1.87835e-07
1.30877e-05
2.11799e-07
1.32008e-05
1.2223e-07
1.33399e-05
-7.35447e-07
1.34033e-05
-5.9375e-07
1.34415e-05
-5.20388e-07
-5.58502e-07
1.34853e-05
1.43141e-05
-4.71707e-08
1.43011e-05
-1.17606e-07
1.43495e-05
-1.40841e-07
1.43522e-05
-2.45103e-07
1.43874e-05
-2.84848e-07
1.43877e-05
-3.31523e-07
1.43928e-05
-3.16929e-07
1.43657e-05
-3.14177e-07
1.43063e-05
-2.12568e-07
1.42153e-05
-1.2371e-08
1.41724e-05
1.30749e-07
1.41485e-05
1.81875e-07
1.41469e-05
1.92359e-07
1.41303e-05
2.04427e-07
1.40956e-05
2.46579e-07
1.43901e-05
-1.72346e-07
1.4438e-05
-7.833e-07
1.44939e-05
-6.49676e-07
1.45445e-05
-5.71007e-07
-6.17943e-07
1.4604e-05
1.54583e-05
-5.64502e-08
1.54377e-05
-9.70575e-08
1.55036e-05
-2.06701e-07
1.54923e-05
-2.33824e-07
1.55333e-05
-3.25834e-07
1.55175e-05
-3.15725e-07
1.55205e-05
-3.19957e-07
1.54732e-05
-2.66855e-07
1.53926e-05
-1.3196e-07
1.53132e-05
6.69785e-08
1.52862e-05
1.57796e-07
1.52606e-05
2.07502e-07
1.52524e-05
2.00513e-07
1.52329e-05
2.23972e-07
1.52331e-05
2.46331e-07
1.56877e-05
-6.26896e-07
1.56376e-05
-7.33213e-07
1.567e-05
-6.82072e-07
1.57237e-05
-6.24693e-07
-6.83325e-07
1.57891e-05
1.66862e-05
-6.0183e-08
1.67033e-05
-1.1412e-07
1.67238e-05
-2.272e-07
1.67358e-05
-2.4588e-07
1.6746e-05
-3.36005e-07
1.67423e-05
-3.12011e-07
1.67221e-05
-2.99815e-07
1.66599e-05
-2.04637e-07
1.65688e-05
-4.08824e-08
1.65118e-05
1.23996e-07
1.64813e-05
1.88344e-07
1.6462e-05
2.26752e-07
1.64366e-05
2.25938e-07
1.6396e-05
2.64572e-07
1.65982e-05
4.41262e-08
1.68786e-05
-9.07277e-07
1.69146e-05
-7.69228e-07
1.69439e-05
-7.11413e-07
1.69931e-05
-6.73875e-07
-7.50869e-07
1.70607e-05
1.80122e-05
-5.80071e-08
1.80604e-05
-1.62271e-07
1.80393e-05
-2.06132e-07
1.80748e-05
-2.81386e-07
1.80545e-05
-3.15645e-07
1.80589e-05
-3.16504e-07
1.80116e-05
-2.52444e-07
1.79426e-05
-1.35642e-07
1.78519e-05
4.98411e-08
1.78142e-05
1.61611e-07
1.77727e-05
2.29893e-07
1.77544e-05
2.44998e-07
1.77185e-05
2.61913e-07
1.76784e-05
3.04627e-07
1.82129e-05
-4.90343e-07
1.82119e-05
-9.06303e-07
1.8263e-05
-8.20293e-07
1.83102e-05
-7.58651e-07
1.83634e-05
-7.27095e-07
-8.21198e-07
1.84338e-05
1.94525e-05
-5.78485e-08
1.94784e-05
-1.88162e-07
1.94802e-05
-2.07915e-07
1.95001e-05
-3.01253e-07
1.94822e-05
-2.97737e-07
1.94651e-05
-2.99489e-07
1.94081e-05
-1.95387e-07
1.93308e-05
-5.83297e-08
1.92596e-05
1.21052e-07
1.92193e-05
2.01841e-07
1.918e-05
2.6921e-07
1.91422e-05
2.82776e-07
1.90747e-05
3.29468e-07
1.92452e-05
1.34142e-07
1.97051e-05
-9.50319e-07
1.96971e-05
-8.9823e-07
1.97304e-05
-8.53572e-07
1.97839e-05
-8.12224e-07
1.98447e-05
-7.87827e-07
-8.96932e-07
1.99204e-05
2.10112e-05
-6.32202e-08
2.09965e-05
-1.73508e-07
2.10434e-05
-2.54797e-07
2.10279e-05
-2.85768e-07
2.10267e-05
-2.96547e-07
2.09735e-05
-2.46284e-07
2.09209e-05
-1.42811e-07
2.08348e-05
2.78189e-08
2.07918e-05
1.64079e-07
2.07355e-05
2.58088e-07
2.07015e-05
3.0322e-07
2.06464e-05
3.37852e-07
2.05602e-05
4.15682e-07
2.11252e-05
-4.30839e-07
2.12147e-05
-1.03983e-06
2.12708e-05
-9.54268e-07
2.13174e-05
-9.00247e-07
2.13757e-05
-8.7054e-07
2.14429e-05
-8.54986e-07
-9.79476e-07
2.15254e-05
2.26858e-05
-6.60757e-08
2.26738e-05
-1.61538e-07
2.27085e-05
-2.89441e-07
2.26865e-05
-2.63817e-07
2.2673e-05
-2.83004e-07
2.26058e-05
-1.79159e-07
2.25446e-05
-8.15454e-08
2.24689e-05
1.03461e-07
2.24335e-05
1.99538e-07
2.23791e-05
3.12436e-07
2.23279e-05
3.54457e-07
2.2243e-05
4.22739e-07
2.23618e-05
2.96849e-07
2.2924e-05
-9.9299e-07
2.29219e-05
-1.0378e-06
2.29661e-05
-9.98402e-07
2.30249e-05
-9.59042e-07
2.3092e-05
-9.37697e-07
2.31665e-05
-9.29448e-07
-1.06966e-06
2.32567e-05
2.44879e-05
-6.00191e-08
2.45063e-05
-1.79917e-07
2.44886e-05
-2.71787e-07
2.44858e-05
-2.60985e-07
2.44342e-05
-2.3147e-07
2.43766e-05
-1.21473e-07
2.42914e-05
3.63365e-09
2.424e-05
1.54799e-07
2.41887e-05
2.50924e-07
2.41553e-05
3.45775e-07
2.40905e-05
4.19294e-07
2.398e-05
5.33201e-07
2.45068e-05
-2.29944e-07
2.46923e-05
-1.17844e-06
2.47525e-05
-1.09806e-06
2.48044e-05
-1.05028e-06
2.48701e-05
-1.02477e-06
2.49461e-05
-1.01364e-06
2.50286e-05
-1.01201e-06
-1.16816e-06
2.51271e-05
2.64411e-05
-5.15084e-08
2.64626e-05
-2.01472e-07
2.64236e-05
-2.32791e-07
2.64209e-05
-2.58236e-07
2.63468e-05
-1.57386e-07
2.62896e-05
-6.42542e-08
2.61936e-05
9.9638e-08
2.61479e-05
2.00412e-07
2.60848e-05
3.14084e-07
2.60567e-05
3.73873e-07
2.60054e-05
4.70536e-07
2.60223e-05
5.16341e-07
2.66825e-05
-8.90144e-07
2.66749e-05
-1.17083e-06
2.67267e-05
-1.1499e-06
2.67933e-05
-1.1168e-06
2.68694e-05
-1.10093e-06
2.69547e-05
-1.09894e-06
2.70456e-05
-1.10296e-06
-1.27619e-06
2.71537e-05
2.85599e-05
-5.00447e-08
2.85555e-05
-1.97124e-07
2.85332e-05
-2.10499e-07
2.84993e-05
-2.24328e-07
2.84334e-05
-9.15129e-08
2.83562e-05
1.29815e-08
2.82729e-05
1.82902e-07
2.82042e-05
2.69157e-07
2.8145e-05
3.73229e-07
2.81032e-05
4.15671e-07
2.80907e-05
4.83097e-07
2.84725e-05
1.34575e-07
2.87823e-05
-1.20003e-06
2.88225e-05
-1.21104e-06
2.88729e-05
-1.20023e-06
2.89475e-05
-1.19143e-06
2.90344e-05
-1.18779e-06
2.91293e-05
-1.19383e-06
2.92291e-05
-1.20273e-06
-1.39533e-06
2.93482e-05
3.0846e-05
-5.44136e-08
3.08266e-05
-1.77655e-07
3.08093e-05
-1.93212e-07
3.07489e-05
-1.63938e-07
3.06938e-05
-3.64611e-08
3.06057e-05
1.01079e-07
3.05344e-05
2.54256e-07
3.04434e-05
3.60165e-07
3.03821e-05
4.34474e-07
3.03409e-05
4.56881e-07
3.04456e-05
3.7845e-07
3.10897e-05
-5.09517e-07
3.10592e-05
-1.16951e-06
3.11074e-05
-1.25929e-06
3.11804e-05
-1.27319e-06
3.12705e-05
-1.2816e-06
3.13713e-05
-1.2886e-06
3.14784e-05
-1.30084e-06
3.1589e-05
-1.31342e-06
-1.52739e-06
3.17211e-05
3.3307e-05
-5.7268e-08
3.32935e-05
-1.64163e-07
3.32532e-05
-1.52986e-07
3.31929e-05
-1.03591e-07
3.31353e-05
2.11348e-08
3.30662e-05
1.7018e-07
3.29951e-05
3.25334e-07
3.29076e-05
4.47714e-07
3.28314e-05
5.1064e-07
3.28132e-05
4.75132e-07
3.32126e-05
-2.09503e-08
3.35494e-05
-8.46388e-07
3.35183e-05
-1.13835e-06
3.35617e-05
-1.30272e-06
3.36505e-05
-1.36198e-06
3.37613e-05
-1.39245e-06
3.3884e-05
-1.4113e-06
3.40127e-05
-1.42949e-06
3.41427e-05
-1.44344e-06
-1.67949e-06
3.42948e-05
3.59641e-05
-5.82562e-08
3.59465e-05
-1.46573e-07
3.58933e-05
-9.97391e-08
3.58373e-05
-4.75837e-08
3.5787e-05
7.14465e-08
3.57469e-05
2.10287e-07
3.56966e-05
3.7557e-07
3.56348e-05
5.09561e-07
3.55736e-05
5.71814e-07
3.5707e-05
3.41724e-07
3.60679e-05
-3.81868e-07
3.611e-05
-8.88423e-07
3.61181e-05
-1.14653e-06
3.61771e-05
-1.36171e-06
3.62802e-05
-1.46509e-06
3.64123e-05
-1.52448e-06
3.6564e-05
-1.56307e-06
3.67273e-05
-1.59275e-06
3.68982e-05
-1.6143e-06
-1.87453e-06
3.70932e-05
3.88355e-05
-5.92506e-08
3.87924e-05
-1.03505e-07
3.87499e-05
-5.72249e-08
3.86943e-05
8.01825e-09
3.86674e-05
9.83114e-08
3.86568e-05
2.20886e-07
3.86697e-05
3.62626e-07
3.8684e-05
4.95297e-07
3.87447e-05
5.11169e-07
3.89565e-05
1.29851e-07
3.90007e-05
-4.26036e-07
3.88957e-05
-7.8347e-07
3.88782e-05
-1.12896e-06
3.8941e-05
-1.42458e-06
3.90565e-05
-1.58054e-06
3.92065e-05
-1.67451e-06
3.9386e-05
-1.74258e-06
3.95842e-05
-1.79087e-06
3.98001e-05
-1.83025e-06
-2.11713e-06
4.00427e-05
4.19312e-05
-5.53875e-08
4.18697e-05
-4.20645e-08
4.18311e-05
-1.86002e-08
4.17909e-05
4.81878e-08
4.17824e-05
1.0681e-07
4.18143e-05
1.89064e-07
4.19203e-05
2.56571e-07
4.21039e-05
3.1175e-07
4.23524e-05
2.62659e-07
4.24403e-05
4.19139e-08
4.22508e-05
-2.36499e-07
4.20017e-05
-5.34425e-07
4.18625e-05
-9.8974e-07
4.18709e-05
-1.433e-06
4.19797e-05
-1.68933e-06
4.21287e-05
-1.82354e-06
4.23065e-05
-1.92031e-06
4.25111e-05
-1.99554e-06
4.27148e-05
-2.03386e-06
-2.27516e-06
4.28728e-05
4.52715e-05
-4.37058e-08
4.52081e-05
2.12741e-08
4.51661e-05
2.34472e-08
4.51508e-05
6.35039e-08
4.51598e-05
9.77455e-08
4.52386e-05
1.1026e-07
4.54424e-05
5.28e-08
4.58018e-05
-4.7644e-08
4.6182e-05
-1.17506e-07
4.62918e-05
-6.79061e-08
4.60908e-05
-3.55283e-08
4.59464e-05
-3.89974e-07
4.58684e-05
-9.11776e-07
4.56478e-05
-1.21241e-06
4.54109e-05
-1.45238e-06
4.52951e-05
-1.70773e-06
4.52913e-05
-1.91652e-06
4.53784e-05
-2.08268e-06
4.55891e-05
-2.24455e-06
-2.65519e-06
4.59691e-05
4.88834e-05
-2.85093e-08
4.88207e-05
8.39342e-08
4.87946e-05
4.96023e-08
4.88018e-05
5.62714e-08
4.88443e-05
5.52387e-08
4.89619e-05
-7.29349e-09
4.91944e-05
-1.79726e-07
4.95734e-05
-4.26647e-07
5.00851e-05
-6.29237e-07
5.06816e-05
-6.64321e-07
5.12864e-05
-6.40327e-07
5.17785e-05
-8.82077e-07
5.20894e-05
-1.22272e-06
5.23803e-05
-1.50334e-06
5.26404e-05
-1.71241e-06
5.27865e-05
-1.85386e-06
5.28296e-05
-1.95962e-06
5.27945e-05
-2.04758e-06
5.26522e-05
-2.10221e-06
-2.42521e-06
5.24222e-05
5.27861e-05
-1.19268e-08
5.27433e-05
1.26807e-07
5.27443e-05
4.86049e-08
5.27811e-05
1.94168e-08
5.28647e-05
-2.8326e-08
5.29992e-05
-1.41818e-07
5.31887e-05
-3.69267e-07
5.34685e-05
-7.06438e-07
5.39831e-05
-1.14384e-06
5.48879e-05
-1.56908e-06
5.59816e-05
-1.73405e-06
5.6605e-05
-1.50544e-06
5.67832e-05
-1.40096e-06
5.6854e-05
-1.57418e-06
5.68695e-05
-1.72785e-06
5.68223e-05
-1.80668e-06
5.67085e-05
-1.84584e-06
5.65577e-05
-1.89673e-06
5.64046e-05
-1.94912e-06
-2.35425e-06
5.63336e-05
5.69991e-05
7.4944e-09
5.70016e-05
1.24322e-07
5.70403e-05
9.84431e-09
5.7108e-05
-4.82139e-08
5.72197e-05
-1.40041e-07
5.73611e-05
-2.83209e-07
5.75252e-05
-5.3338e-07
5.77176e-05
-8.98856e-07
5.7966e-05
-1.39228e-06
5.83139e-05
-1.91689e-06
5.89671e-05
-2.38734e-06
6.01387e-05
-2.67702e-06
6.13017e-05
-2.56389e-06
6.18712e-05
-2.14373e-06
6.17888e-05
-1.64541e-06
6.13887e-05
-1.40657e-06
6.11842e-05
-1.64136e-06
6.11228e-05
-1.8354e-06
6.10911e-05
-1.91739e-06
-2.37273e-06
6.11096e-05
6.15409e-05
3.7527e-08
6.16264e-05
3.8785e-08
6.16901e-05
-5.38535e-08
6.17867e-05
-1.44763e-07
6.18989e-05
-2.52293e-07
6.20508e-05
-4.35082e-07
6.2206e-05
-6.88584e-07
6.2375e-05
-1.0678e-06
6.25081e-05
-1.52546e-06
6.25435e-05
-1.95221e-06
6.23998e-05
-2.24367e-06
6.21349e-05
-2.4121e-06
6.21448e-05
-2.57382e-06
6.27441e-05
-2.74303e-06
6.39685e-05
-2.86986e-06
6.53819e-05
-2.81995e-06
6.62917e-05
-2.5511e-06
6.67187e-05
-2.26242e-06
6.68754e-05
-2.07411e-06
-2.45196e-06
6.69546e-05
6.64333e-05
9.0985e-08
6.66702e-05
-1.98087e-07
6.66785e-05
-6.21251e-08
6.68221e-05
-2.88374e-07
6.69002e-05
-3.30435e-07
6.70811e-05
-6.15929e-07
6.71959e-05
-8.0335e-07
6.7336e-05
-1.20795e-06
6.73415e-05
-1.531e-06
6.73235e-05
-1.93418e-06
6.72752e-05
-2.19539e-06
6.73296e-05
-2.46643e-06
6.73584e-05
-2.60265e-06
6.72932e-05
-2.67781e-06
6.70376e-05
-2.6143e-06
6.67907e-05
-2.573e-06
6.68065e-05
-2.56698e-06
6.71366e-05
-2.59249e-06
6.76573e-05
-2.59476e-06
-2.98696e-06
6.81923e-05
7.17466e-05
1.39507e-07
7.19692e-05
-4.20639e-07
7.20363e-05
-1.29221e-07
7.22069e-05
-4.5902e-07
7.22927e-05
-4.16156e-07
7.24556e-05
-7.7892e-07
7.2528e-05
-8.75659e-07
7.26209e-05
-1.30091e-06
7.26125e-05
-1.52256e-06
7.26654e-05
-1.98707e-06
7.27306e-05
-2.26066e-06
7.28922e-05
-2.628e-06
7.29886e-05
-2.69907e-06
7.3058e-05
-2.74722e-06
7.30653e-05
-2.62152e-06
7.30994e-05
-2.60712e-06
7.31242e-05
-2.59186e-06
7.32472e-05
-2.71549e-06
7.35062e-05
-2.8537e-06
-3.60138e-06
7.41206e-05
7.75058e-05
7.75786e-05
7.77878e-05
7.79517e-05
7.80515e-05
7.80994e-05
7.80722e-05
7.79809e-05
7.78539e-05
7.77676e-05
7.77709e-05
7.78458e-05
7.79759e-05
7.81804e-05
7.84808e-05
7.88094e-05
7.90515e-05
7.90624e-05
7.87043e-05
7.75963e-05
3.88407e-06
1.03181e-07
3.79325e-06
9.08274e-08
3.69801e-06
9.52331e-08
3.59998e-06
9.80357e-08
3.49917e-06
1.00806e-07
3.39567e-06
1.03503e-07
3.2901e-06
1.05566e-07
3.18293e-06
1.07167e-07
3.07467e-06
1.08269e-07
2.96552e-06
1.09145e-07
2.8554e-06
1.10122e-07
2.74414e-06
1.11258e-07
2.63159e-06
1.12553e-07
2.51749e-06
1.14094e-07
2.40143e-06
1.16065e-07
2.28327e-06
1.18154e-07
2.16272e-06
1.20553e-07
2.03964e-06
1.23076e-07
1.91407e-06
1.25578e-07
1.7868e-06
1.27269e-07
1.65863e-06
1.28171e-07
1.5307e-06
1.27924e-07
1.4047e-06
1.26001e-07
1.28364e-06
1.21066e-07
1.17194e-06
1.117e-07
1.07446e-06
9.74754e-08
9.95721e-07
7.87407e-08
9.36785e-07
5.89362e-08
8.95608e-07
4.11762e-08
8.67311e-07
2.82978e-08
8.47315e-07
1.99954e-08
8.32384e-07
1.49316e-08
8.20312e-07
1.20721e-08
8.09914e-07
1.03972e-08
8.00302e-07
9.61231e-09
7.91191e-07
9.11103e-09
7.81625e-07
9.56592e-09
7.71734e-07
9.89116e-09
7.61559e-07
1.01749e-08
7.51009e-07
1.05497e-08
7.40416e-07
1.05929e-08
7.29488e-07
1.09287e-08
7.18203e-07
1.12853e-08
7.0627e-07
1.19326e-08
6.94188e-07
1.20823e-08
6.82079e-07
1.21089e-08
6.7025e-07
1.18287e-08
6.59408e-07
1.08418e-08
6.48867e-07
1.05408e-08
6.38674e-07
1.01936e-08
6.28649e-07
1.00251e-08
6.18337e-07
1.03114e-08
6.08293e-07
1.00444e-08
5.98552e-07
9.74119e-09
5.89332e-07
9.22006e-09
5.80704e-07
8.62757e-09
5.7242e-07
8.28378e-09
5.64434e-07
7.98671e-09
5.5629e-07
8.14321e-09
5.48481e-07
7.80895e-09
5.41027e-07
7.4549e-09
5.33599e-07
7.42735e-09
5.27129e-07
6.47058e-09
5.20499e-07
6.62914e-09
5.13691e-07
6.80809e-09
5.08056e-07
5.63525e-09
5.01799e-07
6.25685e-09
4.95456e-07
6.3437e-09
4.90249e-07
5.20687e-09
4.84932e-07
5.31703e-09
4.80188e-07
4.74356e-09
4.75272e-07
4.91605e-09
4.6957e-07
5.70245e-09
4.6572e-07
3.84918e-09
4.62067e-07
3.65336e-09
4.57113e-07
4.95404e-09
4.53329e-07
3.78386e-09
4.50238e-07
3.09112e-09
4.4634e-07
3.89792e-09
4.43082e-07
3.25802e-09
4.40424e-07
2.65796e-09
4.37535e-07
2.8892e-09
4.34661e-07
2.87361e-09
4.32284e-07
2.37748e-09
4.30207e-07
2.0766e-09
4.28211e-07
1.99664e-09
4.2604e-07
2.17078e-09
4.24363e-07
1.6768e-09
4.22943e-07
1.41971e-09
4.21539e-07
1.40413e-09
4.20133e-07
1.40637e-09
4.19151e-07
9.82259e-10
4.18262e-07
8.89022e-10
4.17576e-07
6.85405e-10
4.17133e-07
4.42742e-10
4.17142e-07
-8.23452e-12
4.17613e-07
-4.71269e-10
4.1901e-07
-1.39682e-09
4.22335e-07
-3.325e-09
-1.01501e-08
4.28656e-06
1.10007e-07
4.29323e-06
8.41573e-08
4.2926e-06
9.58557e-08
4.28629e-06
1.04351e-07
4.27484e-06
1.12258e-07
4.25892e-06
1.19423e-07
4.23971e-06
1.24778e-07
4.2181e-06
1.28768e-07
4.19485e-06
1.31521e-07
4.16993e-06
1.34067e-07
4.14306e-06
1.36989e-07
4.11348e-06
1.40844e-07
4.08096e-06
1.45071e-07
4.04475e-06
1.50304e-07
4.00469e-06
1.56129e-07
3.96029e-06
1.62547e-07
3.91152e-06
1.69331e-07
3.85797e-06
1.76619e-07
3.79944e-06
1.84106e-07
3.73608e-06
1.90631e-07
3.66782e-06
1.96427e-07
3.59526e-06
2.00484e-07
3.51847e-06
2.028e-07
3.43923e-06
2.003e-07
3.35879e-06
1.92142e-07
3.28019e-06
1.76071e-07
3.20517e-06
1.53763e-07
3.13601e-06
1.28099e-07
3.07392e-06
1.0327e-07
3.0177e-06
8.45149e-08
2.96645e-06
7.12426e-08
2.91742e-06
6.39657e-08
2.87034e-06
5.91457e-08
2.82408e-06
5.66638e-08
2.77905e-06
5.46427e-08
2.73491e-06
5.32465e-08
2.69075e-06
5.37251e-08
2.64739e-06
5.32501e-08
2.60415e-06
5.34227e-08
2.56168e-06
5.30145e-08
2.51987e-06
5.24034e-08
2.47854e-06
5.22568e-08
2.4374e-06
5.24319e-08
2.39648e-06
5.28448e-08
2.35584e-06
5.2726e-08
2.31533e-06
5.26216e-08
2.27639e-06
5.07678e-08
2.23828e-06
4.89456e-08
2.20132e-06
4.75046e-08
2.16594e-06
4.55753e-08
2.13062e-06
4.53406e-08
2.09631e-06
4.46211e-08
2.06283e-06
4.35232e-08
2.02979e-06
4.27845e-08
1.99861e-06
4.04001e-08
1.96862e-06
3.8623e-08
1.9394e-06
3.74978e-08
1.91167e-06
3.57157e-08
1.88436e-06
3.54601e-08
1.85733e-06
3.48379e-08
1.8318e-06
3.29837e-08
1.80759e-06
3.1635e-08
1.78367e-06
3.0389e-08
1.76025e-06
3.00522e-08
1.73862e-06
2.84353e-08
1.71782e-06
2.64385e-08
1.69593e-06
2.81403e-08
1.67512e-06
2.71539e-08
1.65663e-06
2.37051e-08
1.63852e-06
2.34232e-08
1.62022e-06
2.30467e-08
1.60231e-06
2.28183e-08
1.58566e-06
2.23563e-08
1.57052e-06
1.89909e-08
1.555e-06
1.91714e-08
1.53989e-06
2.00658e-08
1.52651e-06
1.7159e-08
1.51346e-06
1.61488e-08
1.50047e-06
1.6882e-08
1.48897e-06
1.47608e-08
1.47815e-06
1.34787e-08
1.46748e-06
1.35552e-08
1.45756e-06
1.27974e-08
1.44858e-06
1.13574e-08
1.44028e-06
1.03784e-08
1.43231e-06
9.96677e-09
1.42486e-06
9.62047e-09
1.41817e-06
8.36569e-09
1.41226e-06
7.32345e-09
1.40644e-06
7.23223e-09
1.40139e-06
6.45119e-09
1.39668e-06
5.68998e-09
1.39289e-06
4.67918e-09
1.38908e-06
4.49834e-09
1.38653e-06
2.99396e-09
1.38407e-06
2.44822e-09
1.38336e-06
2.37164e-10
1.38351e-06
-1.54257e-09
1.38636e-06
-6.17362e-09
-2.32372e-08
4.62489e-06
1.0689e-07
4.6363e-06
7.27495e-08
4.64337e-06
8.87882e-08
4.64565e-06
1.02067e-07
4.64424e-06
1.13667e-07
4.64021e-06
1.23449e-07
4.63517e-06
1.29819e-07
4.63014e-06
1.33803e-07
4.62603e-06
1.35631e-07
4.62261e-06
1.37484e-07
4.61975e-06
1.39852e-07
4.61647e-06
1.4412e-07
4.6126e-06
1.48939e-07
4.60738e-06
1.5553e-07
4.60072e-06
1.62792e-07
4.59234e-06
1.70922e-07
4.58217e-06
1.79505e-07
4.57023e-06
1.88551e-07
4.55607e-06
1.98271e-07
4.54e-06
2.06701e-07
4.52139e-06
2.15041e-07
4.50079e-06
2.21084e-07
4.47751e-06
2.26072e-07
4.4523e-06
2.25509e-07
4.42474e-06
2.19704e-07
4.39552e-06
2.05295e-07
4.36481e-06
1.8447e-07
4.33343e-06
1.59479e-07
4.30328e-06
1.3342e-07
4.27426e-06
1.13533e-07
4.24701e-06
9.84934e-08
4.21974e-06
9.12343e-08
4.19262e-06
8.62665e-08
4.16465e-06
8.46326e-08
4.13625e-06
8.30509e-08
4.1075e-06
8.19979e-08
4.07753e-06
8.36859e-08
4.04744e-06
8.33406e-08
4.01628e-06
8.45896e-08
3.98498e-06
8.43096e-08
3.95311e-06
8.42746e-08
3.92089e-06
8.44749e-08
3.88786e-06
8.54605e-08
3.85365e-06
8.70627e-08
3.81899e-06
8.73841e-08
3.78295e-06
8.86609e-08
3.74733e-06
8.63821e-08
3.71166e-06
8.46236e-08
3.67562e-06
8.35457e-08
3.64006e-06
8.11294e-08
3.60361e-06
8.17904e-08
3.56696e-06
8.12744e-08
3.53e-06
8.04797e-08
3.49304e-06
7.97493e-08
3.45654e-06
7.68944e-08
3.42024e-06
7.49204e-08
3.38463e-06
7.31106e-08
3.3488e-06
7.15492e-08
3.31325e-06
7.10116e-08
3.27809e-06
6.99954e-08
3.24247e-06
6.86063e-08
3.20865e-06
6.54481e-08
3.175e-06
6.40397e-08
3.14042e-06
6.46313e-08
3.10826e-06
6.05946e-08
3.07646e-06
5.82452e-08
3.04343e-06
6.11689e-08
3.0118e-06
5.87844e-08
2.98111e-06
5.43905e-08
2.9519e-06
5.26417e-08
2.92309e-06
5.18523e-08
2.89282e-06
5.30912e-08
2.86494e-06
5.02304e-08
2.83958e-06
4.43486e-08
2.81248e-06
4.62801e-08
2.78632e-06
4.62189e-08
2.76293e-06
4.05503e-08
2.73927e-06
3.98092e-08
2.71599e-06
4.01586e-08
2.69484e-06
3.59106e-08
2.67456e-06
3.37624e-08
2.65448e-06
3.36392e-08
2.63575e-06
3.15212e-08
2.61825e-06
2.88569e-08
2.60189e-06
2.67426e-08
2.58591e-06
2.59484e-08
2.57119e-06
2.43394e-08
2.55737e-06
2.21807e-08
2.54492e-06
1.978e-08
2.53262e-06
1.95311e-08
2.52182e-06
1.72476e-08
2.51145e-06
1.6063e-08
2.50252e-06
1.36071e-08
2.49386e-06
1.31646e-08
2.48672e-06
1.01342e-08
2.48027e-06
8.89125e-09
2.47524e-06
5.26516e-09
2.47261e-06
1.09492e-09
2.47096e-06
-4.52505e-09
-3.20505e-08
4.99307e-06
7.86499e-08
5.00463e-06
6.11902e-08
5.01325e-06
8.01748e-08
5.01655e-06
9.87655e-08
5.01555e-06
1.14664e-07
5.01181e-06
1.27195e-07
5.00739e-06
1.34233e-07
5.00356e-06
1.37634e-07
5.00136e-06
1.37828e-07
5.00058e-06
1.38273e-07
5.00104e-06
1.39384e-07
5.00196e-06
1.432e-07
5.00297e-06
1.4793e-07
5.00363e-06
1.54872e-07
5.00372e-06
1.62704e-07
5.00338e-06
1.71256e-07
5.00244e-06
1.80452e-07
5.00138e-06
1.89612e-07
4.99976e-06
1.99882e-07
4.99816e-06
2.08309e-07
4.99604e-06
2.17158e-07
4.99386e-06
2.23267e-07
4.99117e-06
2.28756e-07
4.98797e-06
2.28718e-07
4.98367e-06
2.23998e-07
4.9776e-06
2.11368e-07
4.9695e-06
1.92563e-07
4.95913e-06
1.69854e-07
4.94816e-06
1.44391e-07
4.93689e-06
1.24803e-07
4.92635e-06
1.09035e-07
4.91575e-06
1.01832e-07
4.90506e-06
9.69597e-08
4.89386e-06
9.58283e-08
4.88197e-06
9.49437e-08
4.86997e-06
9.39997e-08
4.85694e-06
9.67095e-08
4.84383e-06
9.64481e-08
4.82986e-06
9.85679e-08
4.8156e-06
9.85683e-08
4.80098e-06
9.88902e-08
4.78594e-06
9.95183e-08
4.77063e-06
1.0077e-07
4.75409e-06
1.03599e-07
4.73718e-06
1.043e-07
4.71889e-06
1.0695e-07
4.70001e-06
1.05265e-07
4.6809e-06
1.03725e-07
4.66079e-06
1.03656e-07
4.64089e-06
1.01034e-07
4.62017e-06
1.0251e-07
4.59874e-06
1.02704e-07
4.57677e-06
1.02448e-07
4.55386e-06
1.02665e-07
4.5307e-06
1.00051e-07
4.50688e-06
9.87353e-08
4.48299e-06
9.70054e-08
4.45868e-06
9.58601e-08
4.43359e-06
9.61019e-08
4.40881e-06
9.47724e-08
4.38284e-06
9.45724e-08
4.35696e-06
9.13298e-08
4.33154e-06
8.94641e-08
4.30414e-06
9.20278e-08
4.27787e-06
8.68654e-08
4.25208e-06
8.40342e-08
4.22405e-06
8.92017e-08
4.19691e-06
8.59273e-08
4.16996e-06
8.13411e-08
4.14292e-06
7.96814e-08
4.11683e-06
7.79432e-08
4.08861e-06
8.1311e-08
4.06115e-06
7.76815e-08
4.03628e-06
6.92261e-08
4.00934e-06
7.32196e-08
3.98213e-06
7.34273e-08
3.95758e-06
6.51028e-08
3.9323e-06
6.5085e-08
3.90678e-06
6.56772e-08
3.8829e-06
5.97955e-08
3.8597e-06
5.69644e-08
3.83626e-06
5.70737e-08
3.8139e-06
5.38833e-08
3.79237e-06
5.03894e-08
3.77189e-06
4.72211e-08
3.75155e-06
4.62901e-08
3.7323e-06
4.35817e-08
3.71388e-06
4.06015e-08
3.69666e-06
3.7001e-08
3.67971e-06
3.64827e-08
3.66402e-06
3.29406e-08
3.64912e-06
3.09617e-08
3.63522e-06
2.75096e-08
3.62227e-06
2.6115e-08
3.61014e-06
2.22627e-08
3.59973e-06
1.92961e-08
3.5896e-06
1.53948e-08
3.58329e-06
7.40725e-09
3.57635e-06
2.4119e-09
-3.39749e-08
5.39311e-06
2.79757e-08
5.40438e-06
4.99207e-08
5.41366e-06
7.08878e-08
5.41729e-06
9.5137e-08
5.41597e-06
1.15985e-07
5.41172e-06
1.31452e-07
5.40689e-06
1.3906e-07
5.40294e-06
1.41586e-07
5.40082e-06
1.3995e-07
5.40034e-06
1.38746e-07
5.40119e-06
1.38533e-07
5.40275e-06
1.41642e-07
5.4044e-06
1.46285e-07
5.40587e-06
1.53396e-07
5.40683e-06
1.61744e-07
5.40758e-06
1.70508e-07
5.40789e-06
1.80141e-07
5.40838e-06
1.89123e-07
5.4088e-06
1.9946e-07
5.40966e-06
2.07451e-07
5.41075e-06