/*--------------------------------*- C++ -*----------------------------------*\
  =========                 |
  \\      /  F ield         | OpenFOAM: The Open Source CFD Toolbox
   \\    /   O peration     | Website:  https://openfoam.org
    \\  /    A nd           | Version:  6
     \\/     M anipulation  |
\*---------------------------------------------------------------------------*/
FoamFile
{
    version     2.0;
    format      ascii;
    class       volVectorField;
    location    "1";
    object      U;
}
// * * * * * * * * * * * * * * * * * * * * * * * * * * * * * * * * * * * * * //

dimensions      [0 1 -1 0 0 0 0];

internalField   nonuniform List<vector> 
4800
(
(0.959066 -4.60746e-05 0)
(1.04134 5.03048e-05 0)
(0.96625 -2.46214e-05 0)
(1.04224 8.25837e-06 0)
(0.975406 -9.60973e-05 0)
(1.04423 -6.86185e-05 0)
(0.985351 6.75198e-06 0)
(1.04727 -0.000107261 0)
(0.995034 -7.63695e-05 0)
(1.0494 -0.000110713 0)
(1.00289 -1.69564e-05 0)
(1.04968 -5.98352e-05 0)
(1.00818 7.89132e-05 0)
(1.04836 -1.42925e-05 0)
(1.01245 0.000116894 0)
(1.04771 -4.04386e-07 0)
(1.01654 9.06474e-05 0)
(1.04767 2.70783e-05 0)
(1.01967 0.000150151 0)
(1.04613 0.000153956 0)
(0.982433 -0.00010931 0)
(1.01588 0.000303896 0)
(0.990095 -0.000204158 0)
(1.01716 0.000179466 0)
(0.999094 -0.000425404 0)
(1.01988 2.19318e-06 0)
(1.00817 -0.000292369 0)
(1.02434 -6.31549e-05 0)
(1.01687 -0.000330932 0)
(1.02814 -5.94085e-05 0)
(1.02346 -0.000149829 0)
(1.03032 4.25802e-05 0)
(1.02718 5.42512e-05 0)
(1.03106 0.000123499 0)
(1.02964 0.000168366 0)
(1.03213 0.000140885 0)
(1.03215 0.000148002 0)
(1.03373 0.000248196 0)
(1.03364 0.000417668 0)
(1.03382 0.000647586 0)
(0.996084 -0.000219022 0)
(1.00342 0.000652055 0)
(1.00073 -0.000415787 0)
(1.0072 0.000398429 0)
(1.00712 -0.000910679 0)
(1.01218 9.42602e-05 0)
(1.01376 -0.000802032 0)
(1.01858 -4.27515e-05 0)
(1.0207 -0.000849347 0)
(1.02406 9.69899e-06 0)
(1.02583 -0.000494322 0)
(1.02753 0.000230164 0)
(1.02837 -0.000181142 0)
(1.02919 0.000361116 0)
(1.02997 -4.80217e-06 0)
(1.03096 0.00035755 0)
(1.03199 -1.51612e-05 0)
(1.03288 0.000605176 0)
(1.03339 0.000549793 0)
(1.03321 0.00133566 0)
(0.99959 -0.000178999 0)
(1.00096 0.000488421 0)
(1.00279 -0.000251712 0)
(1.00555 9.66978e-05 0)
(1.0084 -0.00100511 0)
(1.01138 -0.00028341 0)
(1.01452 -0.00100519 0)
(1.0179 -0.000590076 0)
(1.02096 -0.00118603 0)
(1.02363 -0.000439239 0)
(1.02592 -0.000677218 0)
(1.02732 -1.9161e-05 0)
(1.0284 -0.000291483 0)
(1.02908 0.00017923 0)
(1.02995 -0.00010659 0)
(1.03083 0.000167448 0)
(1.03196 -0.000144306 0)
(1.0328 0.000677167 0)
(1.03338 0.000739454 0)
(1.03326 0.00184994 0)
(1.00014 -4.94828e-05 0)
(1.00073 -0.000115779 0)
(1.00302 0.000208917 0)
(1.00528 -0.000561655 0)
(1.00851 -0.00073038 0)
(1.01145 -0.000925837 0)
(1.01482 -0.00094536 0)
(1.01784 -0.00145899 0)
(1.02099 -0.00131201 0)
(1.02354 -0.00120567 0)
(1.02592 -0.000677825 0)
(1.02732 -0.000537446 0)
(1.0285 -0.000259591 0)
(1.02915 -0.000247384 0)
(1.03008 -8.85688e-05 0)
(1.03091 -0.000248297 0)
(1.03214 -0.000153787 0)
(1.03297 0.00053734 0)
(1.03362 0.00099139 0)
(1.03352 0.00185914 0)
(1.00022 -1.56386e-05 0)
(1.00075 -0.000615982 0)
(1.00308 0.000599807 0)
(1.00518 -0.0010033 0)
(1.00848 -0.000459899 0)
(1.01145 -0.00126523 0)
(1.01496 -0.000907013 0)
(1.01785 -0.00203224 0)
(1.02105 -0.00142733 0)
(1.02352 -0.00166225 0)
(1.02596 -0.000625326 0)
(1.0273 -0.000795 0)
(1.02855 -0.000151166 0)
(1.02918 -0.000413038 0)
(1.03015 3.41548e-05 0)
(1.03096 -0.000348303 0)
(1.03231 1.38886e-05 0)
(1.0332 0.000626261 0)
(1.03386 0.00126234 0)
(1.03374 0.00164234 0)
(1.00022 -7.30934e-05 0)
(1.00081 -0.000818845 0)
(1.00309 0.000745558 0)
(1.00516 -0.00110926 0)
(1.00844 -0.000346667 0)
(1.01142 -0.00121988 0)
(1.01497 -0.000988004 0)
(1.01788 -0.00218816 0)
(1.02111 -0.00153071 0)
(1.02361 -0.001672 0)
(1.02602 -0.000528442 0)
(1.02735 -0.000674161 0)
(1.02858 5.51274e-05 0)
(1.02922 -0.000224596 0)
(1.03017 0.000304601 0)
(1.031 -2.58005e-05 0)
(1.03251 0.000536759 0)
(1.03345 0.0010427 0)
(1.03405 0.00170752 0)
(1.03387 0.00175552 0)
(1.0002 -0.000375535 0)
(1.00088 -0.000868358 0)
(1.0031 0.000400794 0)
(1.00517 -0.00111887 0)
(1.00844 -0.000664284 0)
(1.01142 -0.00111144 0)
(1.01493 -0.00145575 0)
(1.0179 -0.0021032 0)
(1.02117 -0.00190407 0)
(1.02373 -0.00147367 0)
(1.02612 -0.000763464 0)
(1.02744 -0.000406197 0)
(1.02863 -8.92131e-05 0)
(1.02928 0.000147242 0)
(1.03021 0.000286761 0)
(1.03109 0.000479017 0)
(1.03267 0.0010972 0)
(1.03366 0.00155545 0)
(1.03416 0.00223533 0)
(1.03387 0.00228214 0)
(1.00016 -0.000228642 0)
(1.00101 -0.00199888 0)
(1.00309 0.000275413 0)
(1.00522 -0.00235361 0)
(1.00846 -0.000759736 0)
(1.01145 -0.0022634 0)
(1.0149 -0.00174665 0)
(1.01797 -0.00304909 0)
(1.02125 -0.00214647 0)
(1.02391 -0.00221541 0)
(1.02624 -0.0010865 0)
(1.02758 -0.00109663 0)
(1.02873 -0.000439105 0)
(1.0294 -0.000286912 0)
(1.03029 2.67735e-05 0)
(1.03134 0.000151121 0)
(1.03289 0.00105674 0)
(1.03393 0.00109787 0)
(1.03436 0.00230406 0)
(1.03399 0.0023819 0)
(1.00009 0.00044338 0)
(1.0012 -0.00345456 0)
(1.00311 0.000334662 0)
(1.00534 -0.00410046 0)
(1.00851 -0.000662806 0)
(1.01155 -0.00410623 0)
(1.01491 -0.00191493 0)
(1.0181 -0.00465446 0)
(1.02138 -0.00226776 0)
(1.02413 -0.00362496 0)
(1.0264 -0.00147111 0)
(1.02778 -0.00249354 0)
(1.0289 -0.00083086 0)
(1.02959 -0.00144374 0)
(1.03046 -0.000362587 0)
(1.03162 -0.00108772 0)
(1.03313 5.44991e-05 0)
(1.03431 -0.000518227 0)
(1.03477 0.0014141 0)
(1.0342 0.00181433 0)
(1.00007 0.000453876 0)
(1.00133 -0.00211987 0)
(1.00316 -0.00052249 0)
(1.00544 -0.00345504 0)
(1.00858 -0.00142188 0)
(1.0116 -0.00404998 0)
(1.01497 -0.00272929 0)
(1.01821 -0.00466842 0)
(1.02155 -0.00288934 0)
(1.02432 -0.00383313 0)
(1.02659 -0.00223347 0)
(1.02799 -0.0028553 0)
(1.02914 -0.00126929 0)
(1.02981 -0.00204962 0)
(1.03062 -0.001138 0)
(1.0318 -0.00208235 0)
(1.03331 -0.00152603 0)
(1.03473 -0.00222332 0)
(1.03544 -0.0003178 0)
(1.03467 0.000708613 0)
(0.999969 -0.000980883 0)
(1.00137 0.00247937 0)
(1.003 -0.00252656 0)
(1.00547 7.19372e-05 0)
(1.00846 -0.00314693 0)
(1.01157 -0.00155088 0)
(1.01487 -0.00421368 0)
(1.01825 -0.00258909 0)
(1.02156 -0.00402857 0)
(1.0244 -0.00229793 0)
(1.02666 -0.00331178 0)
(1.02816 -0.00160687 0)
(1.02921 -0.0021835 0)
(1.02987 -0.00158489 0)
(1.0306 -0.00251115 0)
(1.03176 -0.00216487 0)
(1.03325 -0.003427 0)
(1.03502 -0.00313985 0)
(1.03612 -0.00252357 0)
(1.0355 -0.000613419 0)
(0.999751 -0.00173726 0)
(1.0013 0.00514733 0)
(1.00253 -0.00333065 0)
(1.00543 0.00228372 0)
(1.00803 -0.00374041 0)
(1.01147 -4.94406e-05 0)
(1.01452 -0.00463617 0)
(1.01822 -0.00122851 0)
(1.02134 -0.00422107 0)
(1.0244 -0.00126827 0)
(1.02653 -0.00353365 0)
(1.02824 -0.000818811 0)
(1.02898 -0.00298274 0)
(1.02975 -0.00165691 0)
(1.03032 -0.0037923 0)
(1.03153 -0.00267431 0)
(1.03288 -0.00478963 0)
(1.03513 -0.00386022 0)
(1.03646 -0.00381802 0)
(1.03665 -0.00105535 0)
(0.99965 -0.00102261 0)
(1.00108 0.00327737 0)
(1.00211 -0.0026468 0)
(1.00527 0.00108585 0)
(1.00762 -0.00329345 0)
(1.01128 -0.00117187 0)
(1.01421 -0.00427136 0)
(1.01815 -0.00199446 0)
(1.02113 -0.00384537 0)
(1.02438 -0.00194666 0)
(1.02641 -0.00331374 0)
(1.02817 -0.00187302 0)
(1.02867 -0.00383828 0)
(1.0295 -0.00332607 0)
(1.03 -0.00508841 0)
(1.03127 -0.00449373 0)
(1.03258 -0.00568051 0)
(1.03532 -0.00452394 0)
(1.03738 -0.00350415 0)
(1.03865 0.000229322 0)
(0.999822 -0.000267663 0)
(1.00076 -0.000616806 0)
(1.00211 -0.00211937 0)
(1.00503 -0.00168801 0)
(1.00755 -0.00331294 0)
(1.01105 -0.00339734 0)
(1.01423 -0.00441258 0)
(1.01809 -0.00365053 0)
(1.02121 -0.00405162 0)
(1.02437 -0.00332765 0)
(1.02645 -0.00378426 0)
(1.02797 -0.00391817 0)
(1.02849 -0.00528079 0)
(1.02921 -0.00570731 0)
(1.02985 -0.00674067 0)
(1.03118 -0.00674384 0)
(1.03286 -0.00653364 0)
(1.03609 -0.00458101 0)
(1.03892 -0.00226056 0)
(1.04085 0.001769 0)
(1.00008 0.000341669 0)
(1.00056 -0.0039827 0)
(1.00244 -0.00155852 0)
(1.00487 -0.00421671 0)
(1.00776 -0.0032242 0)
(1.01094 -0.00533573 0)
(1.01453 -0.00427328 0)
(1.01815 -0.00505654 0)
(1.02155 -0.00400643 0)
(1.02443 -0.00459146 0)
(1.02659 -0.00431428 0)
(1.02774 -0.00595189 0)
(1.02844 -0.00646544 0)
(1.02902 -0.00785512 0)
(1.02992 -0.00792795 0)
(1.0314 -0.00853548 0)
(1.03389 -0.00697889 0)
(1.03761 -0.00436881 0)
(1.04108 -0.000858765 0)
(1.04331 0.00298438 0)
(1.00023 0.000216607 0)
(1.00062 -0.00446916 0)
(1.00284 -0.00133878 0)
(1.0049 -0.00465286 0)
(1.00805 -0.00313891 0)
(1.01103 -0.00553211 0)
(1.01493 -0.00388199 0)
(1.01836 -0.0051373 0)
(1.02194 -0.00376919 0)
(1.02452 -0.00501142 0)
(1.02665 -0.00489203 0)
(1.02756 -0.007119 0)
(1.0284 -0.00743666 0)
(1.02896 -0.00913197 0)
(1.03011 -0.00879382 0)
(1.03192 -0.00934218 0)
(1.03543 -0.00726117 0)
(1.03975 -0.0039966 0)
(1.04365 -2.4976e-05 0)
(1.04594 0.00368661 0)
(1.00023 -0.000258834 0)
(1.0008 -0.00244987 0)
(1.00306 -0.00138539 0)
(1.005 -0.00334098 0)
(1.0082 -0.00305698 0)
(1.0112 -0.00431267 0)
(1.01519 -0.00352555 0)
(1.01857 -0.00433454 0)
(1.02212 -0.00377266 0)
(1.0245 -0.0050413 0)
(1.02647 -0.00575316 0)
(1.02731 -0.00774719 0)
(1.02822 -0.00847891 0)
(1.02892 -0.00982422 0)
(1.03034 -0.0096572 0)
(1.03262 -0.00940794 0)
(1.0372 -0.00695885 0)
(1.04218 -0.00323918 0)
(1.04631 0.000644746 0)
(1.04848 0.00412807 0)
(1.00012 -0.00110281 0)
(1.00093 0.000508398 0)
(1.00294 -0.00201665 0)
(1.00501 -0.00139204 0)
(1.00808 -0.00344493 0)
(1.0113 -0.00259438 0)
(1.01515 -0.00382409 0)
(1.01863 -0.00336618 0)
(1.02195 -0.00468128 0)
(1.02424 -0.00517704 0)
(1.02598 -0.00728787 0)
(1.02691 -0.00816329 0)
(1.02783 -0.00984976 0)
(1.02881 -0.0100815 0)
(1.03059 -0.0106097 0)
(1.03372 -0.00890434 0)
(1.03919 -0.00574432 0)
(1.04463 -0.00187413 0)
(1.0488 0.00167905 0)
(1.05068 0.00467022 0)
(1.00001 -0.00147478 0)
(1.00089 0.00141707 0)
(1.00259 -0.00271228 0)
(1.0049 -0.00105185 0)
(1.00781 -0.00408365 0)
(1.01125 -0.00232013 0)
(1.01489 -0.00468512 0)
(1.01846 -0.00372466 0)
(1.02148 -0.00631918 0)
(1.02377 -0.00631146 0)
(1.02534 -0.00906179 0)
(1.02644 -0.00910333 0)
(1.02738 -0.0111453 0)
(1.02871 -0.0105119 0)
(1.03099 -0.0111013 0)
(1.03552 -0.0082869 0)
(1.04159 -0.00449835 0)
(1.04713 -0.000684767 0)
(1.05107 0.00242829 0)
(1.05253 0.00482779 0)
(1.00006 -0.000485703 0)
(1.0007 -0.00118219 0)
(1.00242 -0.00255944 0)
(1.00472 -0.00344729 0)
(1.00774 -0.00423132 0)
(1.01114 -0.0045983 0)
(1.01474 -0.00543938 0)
(1.01815 -0.00621142 0)
(1.0211 -0.00763657 0)
(1.02329 -0.00879401 0)
(1.02491 -0.0100716 0)
(1.02605 -0.0109057 0)
(1.02722 -0.011554 0)
(1.02888 -0.0114555 0)
(1.03193 -0.0104399 0)
(1.03773 -0.00702259 0)
(1.04424 -0.00311702 0)
(1.04961 0.000406866 0)
(1.05313 0.00300376 0)
(1.05409 0.00483531 0)
(1.00023 0.000372764 0)
(1.00058 -0.00365491 0)
(1.0026 -0.00226485 0)
(1.00465 -0.00553218 0)
(1.00797 -0.00417062 0)
(1.01107 -0.00679193 0)
(1.01484 -0.00596362 0)
(1.01794 -0.0085086 0)
(1.02101 -0.00822388 0)
(1.02304 -0.0106309 0)
(1.02487 -0.010215 0)
(1.02597 -0.0119534 0)
(1.02753 -0.0110188 0)
(1.02956 -0.0114983 0)
(1.03408 -0.00873893 0)
(1.04054 -0.00480484 0)
(1.0471 -0.00112424 0)
(1.05208 0.00182868 0)
(1.05506 0.00382796 0)
(1.05551 0.0050986 0)
(1.00026 -0.000412717 0)
(1.00064 -0.00252511 0)
(1.00276 -0.00286883 0)
(1.00474 -0.00445927 0)
(1.00812 -0.00464142 0)
(1.01108 -0.00622584 0)
(1.01488 -0.00661516 0)
(1.01787 -0.00825933 0)
(1.02097 -0.00874264 0)
(1.02299 -0.0101862 0)
(1.02497 -0.0104224 0)
(1.02619 -0.0111353 0)
(1.02811 -0.0105119 0)
(1.0308 -0.00968437 0)
(1.03679 -0.00619187 0)
(1.04355 -0.00222978 0)
(1.04977 0.00102783 0)
(1.05417 0.00328221 0)
(1.05657 0.00467471 0)
(1.05655 0.00543728 0)
(1.00015 -0.00130827 0)
(1.00071 -0.000413172 0)
(1.00261 -0.00344034 0)
(1.0048 -0.00256166 0)
(1.00793 -0.00512658 0)
(1.01103 -0.00470884 0)
(1.0146 -0.00707201 0)
(1.01772 -0.00703619 0)
(1.02068 -0.00931112 0)
(1.02288 -0.00925681 0)
(1.02489 -0.0109791 0)
(1.02653 -0.0101733 0)
(1.02887 -0.01038 0)
(1.03296 -0.0076948 0)
(1.03968 -0.00383692 0)
(1.04638 -0.00020157 0)
(1.05202 0.00250655 0)
(1.05573 0.00415279 0)
(1.05757 0.00503897 0)
(1.05716 0.00545689 0)
(1.00011 -0.000896546 0)
(1.00061 -0.000751833 0)
(1.00243 -0.00300556 0)
(1.00468 -0.00271246 0)
(1.00768 -0.00480074 0)
(1.01083 -0.00468979 0)
(1.01424 -0.00678203 0)
(1.01736 -0.00704869 0)
(1.02024 -0.00930101 0)
(1.02258 -0.00961662 0)
(1.02478 -0.0111978 0)
(1.02696 -0.0104117 0)
(1.03003 -0.00986435 0)
(1.0357 -0.00642065 0)
(1.04272 -0.00251389 0)
(1.04899 0.000721176 0)
(1.05392 0.00288026 0)
(1.05691 0.00410937 0)
(1.05827 0.0046875 0)
(1.05757 0.00496308 0)
(1.00021 -0.000223938 0)
(1.00048 -0.0023303 0)
(1.0025 -0.00231083 0)
(1.00455 -0.00389253 0)
(1.00768 -0.00396792 0)
(1.01061 -0.00540453 0)
(1.01407 -0.00587293 0)
(1.01691 -0.00761519 0)
(1.01988 -0.00850661 0)
(1.0222 -0.0102058 0)
(1.02489 -0.0105409 0)
(1.02771 -0.0107013 0)
(1.03209 -0.00852759 0)
(1.03875 -0.00485103 0)
(1.04578 -0.00130426 0)
(1.05144 0.0013764 0)
(1.0556 0.00303349 0)
(1.05796 0.0039318 0)
(1.05892 0.0043699 0)
(1.05804 0.00459573 0)
(1.00027 -0.000268867 0)
(1.00054 -0.00269899 0)
(1.00271 -0.00223325 0)
(1.00461 -0.00407976 0)
(1.00783 -0.00341779 0)
(1.01052 -0.005158 0)
(1.01396 -0.00493938 0)
(1.01655 -0.0070646 0)
(1.01956 -0.00726475 0)
(1.0219 -0.00924201 0)
(1.02515 -0.00894722 0)
(1.02884 -0.00923333 0)
(1.03492 -0.00632718 0)
(1.04192 -0.00288253 0)
(1.04854 -1.43472e-05 0)
(1.05349 0.00183937 0)
(1.05694 0.00292641 0)
(1.05882 0.00343292 0)
(1.0595 0.00374536 0)
(1.05853 0.00392705 0)
(1.00023 -0.00069813 0)
(1.00067 -0.00192191 0)
(1.00282 -0.00275201 0)
(1.00484 -0.00335062 0)
(1.00796 -0.0036482 0)
(1.0106 -0.00409107 0)
(1.01383 -0.00456477 0)
(1.01636 -0.00529587 0)
(1.01929 -0.00595146 0)
(1.02182 -0.0064514 0)
(1.02554 -0.00644661 0)
(1.03029 -0.00539671 0)
(1.03749 -0.00260823 0)
(1.04449 -0.000100511 0)
(1.05047 0.00166242 0)
(1.05468 0.0024134 0)
(1.05761 0.0027106 0)
(1.05921 0.00271319 0)
(1.05983 0.0027826 0)
(1.05891 0.00290097 0)
(1.00022 -0.000669062 0)
(1.00068 -0.00178868 0)
(1.00289 -0.00293234 0)
(1.00502 -0.00329659 0)
(1.00815 -0.00386769 0)
(1.0108 -0.00372574 0)
(1.01393 -0.00407962 0)
(1.01646 -0.00374006 0)
(1.01943 -0.00387145 0)
(1.02224 -0.00305242 0)
(1.02649 -0.00226187 0)
(1.03239 1.69406e-05 0)
(1.03961 0.002387 0)
(1.04595 0.00353385 0)
(1.05112 0.00380942 0)
(1.05467 0.00322979 0)
(1.05734 0.00251984 0)
(1.05896 0.00182786 0)
(1.05983 0.00146666 0)
(1.05918 0.00134967 0)
(1.00032 -0.000378058 0)
(1.0006 -0.00220657 0)
(1.00308 -0.00265465 0)
(1.00515 -0.00371697 0)
(1.00855 -0.00358563 0)
(1.01117 -0.00383023 0)
(1.01456 -0.00304142 0)
(1.01712 -0.00244504 0)
(1.02046 -0.000823145 0)
(1.02359 0.000737141 0)
(1.02856 0.00339754 0)
(1.03449 0.00586341 0)
(1.04086 0.00733936 0)
(1.0459 0.00700939 0)
(1.05014 0.00575058 0)
(1.05311 0.00377964 0)
(1.0558 0.0019563 0)
(1.0577 0.000322715 0)
(1.05911 -0.00074328 0)
(1.05896 -0.00145415 0)
(1.0006 -0.000507656 0)
(1.00039 -0.00183245 0)
(1.00343 -0.00252544 0)
(1.00519 -0.00322955 0)
(1.00917 -0.00317038 0)
(1.0117 -0.00294275 0)
(1.01575 -0.00178058 0)
(1.0185 -0.00021628 0)
(1.02261 0.00247592 0)
(1.02605 0.00549553 0)
(1.03141 0.00908361 0)
(1.03607 0.0113511 0)
(1.04091 0.0117562 0)
(1.04413 0.0103214 0)
(1.04735 0.0077672 0)
(1.04967 0.00469013 0)
(1.0525 0.00170206 0)
(1.05471 -0.00100176 0)
(1.05683 -0.00316146 0)
(1.05731 -0.00485084 0)
(1.00085 -0.00073766 0)
(1.00019 -0.00112725 0)
(1.00369 -0.00227896 0)
(1.00529 -0.00224248 0)
(1.00982 -0.00241725 0)
(1.01249 -0.00140191 0)
(1.01733 -0.000133443 0)
(1.02065 0.00255473 0)
(1.02573 0.00586507 0)
(1.02951 0.0101679 0)
(1.03433 0.0138196 0)
(1.03705 0.016018 0)
(1.03984 0.0158768 0)
(1.04098 0.0141361 0)
(1.0429 0.0109862 0)
(1.04436 0.00739376 0)
(1.04699 0.00352905 0)
(1.04924 -0.000130708 0)
(1.05186 -0.00358033 0)
(1.05299 -0.00649163 0)
(1.0007 -0.000521923 0)
(1.00032 -0.00096821 0)
(1.00366 -0.00161277 0)
(1.00569 -0.00156787 0)
(1.01035 -0.00123574 0)
(1.01371 -7.40831e-05 0)
(1.01915 0.00179889 0)
(1.0236 0.00478992 0)
(1.02949 0.00860487 0)
(1.03359 0.0129125 0)
(1.03734 0.0166178 0)
(1.03821 0.0190089 0)
(1.03862 0.0195239 0)
(1.03769 0.0185108 0)
(1.03781 0.0162199 0)
(1.03805 0.013107 0)
(1.03973 0.00943637 0)
(1.04137 0.00547867 0)
(1.04377 0.00135506 0)
(1.04548 -0.00265701 0)
(1.00044 -0.00030031 0)
(1.00059 -0.000838125 0)
(1.00364 -0.000998776 0)
(1.00628 -0.000888832 0)
(1.011 -0.000148978 0)
(1.01524 0.00113282 0)
(1.02124 0.00327702 0)
(1.02681 0.00604813 0)
(1.03325 0.00931427 0)
(1.03781 0.0126333 0)
(1.04088 0.0158775 0)
(1.04064 0.0184077 0)
(1.03924 0.0199473 0)
(1.03673 0.020454 0)
(1.03503 0.0200063 0)
(1.03369 0.0187173 0)
(1.03361 0.016691 0)
(1.03369 0.0140747 0)
(1.0344 0.0110288 0)
(1.03496 0.00782548 0)
(1.00016 -0.000250779 0)
(1.00092 -0.0004372 0)
(1.00364 -0.000564943 0)
(1.00701 -0.000125781 0)
(1.01173 0.000610512 0)
(1.0169 0.00205844 0)
(1.02314 0.00382746 0)
(1.02945 0.00599074 0)
(1.03589 0.00791068 0)
(1.04106 0.00972977 0)
(1.04416 0.0114106 0)
(1.04395 0.0134671 0)
(1.04189 0.015716 0)
(1.03867 0.0177037 0)
(1.03568 0.0192824 0)
(1.03304 0.0204225 0)
(1.03123 0.020826 0)
(1.02985 0.0205202 0)
(1.02941 0.0197051 0)
(1.02994 0.0187681 0)
(0.999543 3.53567e-05 0)
(1.00155 -0.000156113 0)
(1.00335 -4.84741e-07 0)
(1.008 0.000317958 0)
(1.01216 0.00116047 0)
(1.01855 0.00220449 0)
(1.02425 0.00352777 0)
(1.03123 0.00466615 0)
(1.03679 0.0056101 0)
(1.04237 0.00609689 0)
(1.0456 0.00649046 0)
(1.0474 0.00727724 0)
(1.04602 0.0090535 0)
(1.04365 0.0114573 0)
(1.04071 0.0145835 0)
(1.03794 0.0179237 0)
(1.03476 0.0209952 0)
(1.03239 0.0231904 0)
(1.03103 0.0251029 0)
(1.03148 0.0266391 0)
(0.998275 1.99976e-05 0)
(1.00275 0.000339828 0)
(1.00237 0.000197158 0)
(1.00939 0.000772799 0)
(1.01181 0.00111102 0)
(1.02015 0.00194643 0)
(1.02419 0.00240788 0)
(1.03252 0.00304777 0)
(1.0364 0.003249 0)
(1.04303 0.00361233 0)
(1.04511 0.00372309 0)
(1.04874 0.00434443 0)
(1.04836 0.00542132 0)
(1.0496 0.00785944 0)
(1.04819 0.0107954 0)
(1.04747 0.0142813 0)
(1.04328 0.0176131 0)
(1.04108 0.0211095 0)
(1.03905 0.0244279 0)
(1.03989 0.0277556 0)
(0.998204 0.000258311 0)
(1.00275 2.18985e-05 0)
(1.00225 0.000396401 0)
(1.00959 0.00044438 0)
(1.01187 0.000887955 0)
(1.0204 0.000953819 0)
(1.0242 0.00126661 0)
(1.03267 0.00128531 0)
(1.03645 0.00159671 0)
(1.04353 0.00200433 0)
(1.04594 0.00282284 0)
(1.05076 0.00410464 0)
(1.05148 0.00591525 0)
(1.05407 0.00836068 0)
(1.05298 0.0109295 0)
(1.05346 0.0138626 0)
(1.05111 0.0169826 0)
(1.05137 0.0209187 0)
(1.0505 0.0245391 0)
(1.05189 0.0281476 0)
(0.999275 0.00176438 0)
(1.0018 -0.00190498 0)
(1.00328 0.00159715 0)
(1.00889 -0.00137366 0)
(1.0127 0.00157612 0)
(1.01973 -0.00103185 0)
(1.02485 0.00140358 0)
(1.03227 -0.000759748 0)
(1.0376 0.00157569 0)
(1.04439 0.000388323 0)
(1.04866 0.00329248 0)
(1.05378 0.00349913 0)
(1.05645 0.0072393 0)
(1.05953 0.00872967 0)
(1.06041 0.0130601 0)
(1.06186 0.0156125 0)
(1.06156 0.0204888 0)
(1.06201 0.0236571 0)
(1.06098 0.0279692 0)
(1.06028 0.0299081 0)
(0.999896 0.00141661 0)
(1.00137 -0.00156191 0)
(1.0041 0.00125163 0)
(1.00855 -0.00126452 0)
(1.01337 0.00111779 0)
(1.01942 -0.00106395 0)
(1.02548 0.000959681 0)
(1.03235 -0.000870772 0)
(1.03898 0.0010355 0)
(1.04596 -0.000210575 0)
(1.05209 0.00193831 0)
(1.05809 0.0014973 0)
(1.06291 0.0040502 0)
(1.06711 0.00436887 0)
(1.07033 0.00720571 0)
(1.07318 0.00816604 0)
(1.07474 0.011203 0)
(1.07498 0.0124462 0)
(1.07253 0.0150275 0)
(1.06736 0.0155139 0)
(1.01978 0.000426183 0)
(0.993913 0.000900304 0)
(0.967578 0.00131332 0)
(0.941154 0.0016489 0)
(0.914818 0.00191842 0)
(0.888382 0.00211232 0)
(0.861758 0.00223721 0)
(0.834688 0.00231547 0)
(0.807221 0.00235341 0)
(0.779222 0.00237398 0)
(0.750885 0.00240019 0)
(0.722167 0.00242736 0)
(0.693212 0.00245318 0)
(0.663906 0.0024833 0)
(0.634269 0.00251747 0)
(0.60413 0.00255436 0)
(0.573442 0.00258372 0)
(0.542141 0.00262645 0)
(0.510062 0.0026419 0)
(0.477499 0.00263042 0)
(0.444418 0.00261028 0)
(0.411309 0.00256161 0)
(0.378228 0.00248997 0)
(0.346014 0.00231479 0)
(0.315507 0.00205724 0)
(0.288071 0.00167926 0)
(0.265223 0.00111503 0)
(0.247779 0.000477078 0)
(0.235586 -0.000125055 0)
(0.227116 -0.000536956 0)
(0.221184 -0.000706741 0)
(0.216621 -0.00070219 0)
(0.21318 -0.000611533 0)
(0.210216 -0.000507533 0)
(0.207676 -0.000398923 0)
(0.20526 -0.000300152 0)
(0.202825 -0.000200132 0)
(0.200357 -0.000118778 0)
(0.197729 -6.04318e-05 0)
(0.195086 -1.3392e-05 0)
(0.192361 2.0706e-05 0)
(0.18958 5.54634e-05 0)
(0.18673 8.36667e-05 0)
(0.183688 0.000104481 0)
(0.180645 0.000108683 0)
(0.177445 0.000100321 0)
(0.174432 7.22944e-05 0)
(0.171468 4.34595e-05 0)
(0.168714 5.80284e-05 0)
(0.166069 7.77883e-05 0)
(0.163434 7.78527e-05 0)
(0.160798 6.70105e-05 0)
(0.158217 4.95082e-05 0)
(0.155595 4.74997e-05 0)
(0.15322 4.58697e-05 0)
(0.150874 3.77447e-05 0)
(0.148723 4.1392e-05 0)
(0.146598 4.31285e-05 0)
(0.144552 3.75609e-05 0)
(0.142452 3.54418e-05 0)
(0.140516 3.63582e-05 0)
(0.138576 2.95762e-05 0)
(0.136836 2.01296e-05 0)
(0.135038 3.16939e-05 0)
(0.133431 3.77064e-05 0)
(0.131764 2.04238e-05 0)
(0.13023 1.79329e-05 0)
(0.128577 2.4672e-05 0)
(0.12717 2.23993e-05 0)
(0.12573 1.78053e-05 0)
(0.124524 1.23382e-05 0)
(0.123138 1.86944e-05 0)
(0.121909 2.22934e-05 0)
(0.120611 7.69089e-06 0)
(0.11967 9.4995e-06 0)
(0.118477 1.86439e-05 0)
(0.11751 9.96245e-06 0)
(0.116454 6.41515e-06 0)
(0.11568 1.22642e-05 0)
(0.114654 8.89335e-06 0)
(0.114016 5.9912e-06 0)
(0.113147 7.62682e-06 0)
(0.112562 7.85572e-06 0)
(0.111736 5.50301e-06 0)
(0.111315 4.58636e-06 0)
(0.110633 4.39813e-06 0)
(0.110241 5.76482e-06 0)
(0.109621 3.24244e-06 0)
(0.109331 2.87134e-06 0)
(0.108879 2.46735e-06 0)
(0.108567 3.26764e-06 0)
(0.108264 5.75825e-07 0)
(0.107951 1.356e-06 0)
(0.107902 -1.08722e-06 0)
(0.107494 -7.44776e-07 0)
(0.107832 -5.57617e-06 0)
(0.107317 -6.98016e-06 0)
(0.108365 -1.21898e-05 0)
(0.107707 -4.04203e-05 0)
(0.111023 -5.9074e-05 0)
(1.03284 0.00134019 0)
(1.03058 0.00238533 0)
(1.0278 0.00329833 0)
(1.02466 0.00403765 0)
(1.02161 0.00461987 0)
(1.01813 0.00502875 0)
(1.01448 0.00527242 0)
(1.01003 0.00540818 0)
(1.00521 0.00546454 0)
(0.999462 0.00548858 0)
(0.993291 0.0055331 0)
(0.986298 0.00559592 0)
(0.978774 0.00567295 0)
(0.970498 0.00576657 0)
(0.961375 0.00587372 0)
(0.9515 0.00598082 0)
(0.940357 0.00609243 0)
(0.928488 0.00620859 0)
(0.914948 0.00632388 0)
(0.900709 0.00641181 0)
(0.884681 0.00646571 0)
(0.867993 0.00648377 0)
(0.849742 0.00645045 0)
(0.830897 0.00633531 0)
(0.811491 0.00607491 0)
(0.792033 0.00564765 0)
(0.773903 0.00503119 0)
(0.756595 0.00425765 0)
(0.741832 0.00344057 0)
(0.727683 0.00269186 0)
(0.715267 0.0021143 0)
(0.702973 0.00171074 0)
(0.69144 0.00143225 0)
(0.6802 0.00124064 0)
(0.669119 0.00109019 0)
(0.658652 0.000987874 0)
(0.647851 0.000923783 0)
(0.63759 0.000866977 0)
(0.627135 0.000818317 0)
(0.616913 0.000770396 0)
(0.606923 0.000728098 0)
(0.596891 0.000709586 0)
(0.587189 0.000717977 0)
(0.577166 0.000738714 0)
(0.567738 0.000722129 0)
(0.557741 0.000680833 0)
(0.548439 0.000651833 0)
(0.539257 0.0006024 0)
(0.530094 0.000541479 0)
(0.521642 0.000512735 0)
(0.513154 0.000512918 0)
(0.504676 0.000516487 0)
(0.496883 0.000492854 0)
(0.488655 0.000441137 0)
(0.481138 0.000401229 0)
(0.473785 0.0003811 0)
(0.466754 0.000350277 0)
(0.459824 0.000335139 0)
(0.45346 0.000342559 0)
(0.446829 0.000307438 0)
(0.440541 0.000277373 0)
(0.434613 0.000282765 0)
(0.429123 0.000250679 0)
(0.422963 0.000228051 0)
(0.417983 0.000230323 0)
(0.412854 0.000219113 0)
(0.407729 0.000219179 0)
(0.402472 0.000187682 0)
(0.398004 0.000162656 0)
(0.393455 0.000180893 0)
(0.389452 0.000155742 0)
(0.384545 0.0001384 0)
(0.380868 0.000156202 0)
(0.376999 0.000122113 0)
(0.373331 0.000106822 0)
(0.369368 0.000123245 0)
(0.366537 0.000102513 0)
(0.362859 8.56927e-05 0)
(0.36008 9.2709e-05 0)
(0.356887 7.86592e-05 0)
(0.354586 6.78283e-05 0)
(0.351573 6.71723e-05 0)
(0.349545 6.3563e-05 0)
(0.346902 5.32609e-05 0)
(0.345229 4.70666e-05 0)
(0.342901 4.30218e-05 0)
(0.341383 4.40114e-05 0)
(0.33946 3.41299e-05 0)
(0.338124 2.96681e-05 0)
(0.336645 2.75703e-05 0)
(0.335285 2.62071e-05 0)
(0.334377 1.85261e-05 0)
(0.332883 1.58341e-05 0)
(0.332721 1.2211e-05 0)
(0.330892 4.57984e-06 0)
(0.331755 8.80648e-07 0)
(0.32943 -1.97263e-05 0)
(0.331879 -1.88327e-05 0)
(0.328973 -8.0919e-05 0)
(0.334375 -0.000180472 0)
(1.03246 0.00219184 0)
(1.03072 0.00329307 0)
(1.029 0.00433178 0)
(1.02737 0.00521422 0)
(1.02644 0.00592599 0)
(1.02557 0.00642564 0)
(1.02516 0.00668815 0)
(1.02449 0.00680065 0)
(1.02403 0.00679534 0)
(1.02323 0.00676466 0)
(1.02253 0.00674746 0)
(1.02164 0.00679993 0)
(1.02069 0.00686708 0)
(1.01967 0.00699721 0)
(1.01828 0.00714034 0)
(1.01689 0.00730531 0)
(1.01479 0.00747757 0)
(1.01271 0.00765996 0)
(1.00971 0.00786359 0)
(1.00663 0.00801774 0)
(1.00261 0.00816474 0)
(0.998279 0.0082412 0)
(0.993227 0.00831097 0)
(0.987568 0.00823409 0)
(0.981677 0.00802533 0)
(0.974969 0.00757559 0)
(0.968722 0.00692023 0)
(0.961762 0.00610234 0)
(0.955744 0.00517787 0)
(0.949147 0.0043849 0)
(0.943233 0.00371523 0)
(0.936911 0.0032851 0)
(0.930781 0.00296578 0)
(0.924615 0.00275889 0)
(0.918168 0.00258771 0)
(0.911993 0.002442 0)
(0.90526 0.00238405 0)
(0.898768 0.00228948 0)
(0.891943 0.0022275 0)
(0.884959 0.0021502 0)
(0.87817 0.00208153 0)
(0.870807 0.00203588 0)
(0.86393 0.00199372 0)
(0.856126 0.0019584 0)
(0.848892 0.00193445 0)
(0.840783 0.00192109 0)
(0.833 0.00182768 0)
(0.825143 0.00174854 0)
(0.817068 0.00167952 0)
(0.809236 0.0015794 0)
(0.801304 0.00153803 0)
(0.793016 0.00149221 0)
(0.785207 0.00144379 0)
(0.776634 0.00140666 0)
(0.768896 0.00131833 0)
(0.760505 0.00123815 0)
(0.752785 0.00118477 0)
(0.744741 0.00111099 0)
(0.736882 0.00106985 0)
(0.729072 0.00105082 0)
(0.721318 0.000988873 0)
(0.713285 0.000915505 0)
(0.706513 0.000874844 0)
(0.698162 0.000847445 0)
(0.691271 0.000783028 0)
(0.684157 0.000728185 0)
(0.676879 0.000746019 0)
(0.669621 0.000710962 0)
(0.6631 0.000617639 0)
(0.655857 0.000581924 0)
(0.650284 0.000579372 0)
(0.642935 0.000562674 0)
(0.636863 0.000514952 0)
(0.631017 0.00045023 0)
(0.625333 0.000452014 0)
(0.618806 0.000438332 0)
(0.6142 0.000377129 0)
(0.608325 0.000357145 0)
(0.603516 0.000351358 0)
(0.598261 0.000303024 0)
(0.594159 0.000278073 0)
(0.58914 0.000269307 0)
(0.585332 0.000245613 0)
(0.580925 0.000216063 0)
(0.577563 0.000195608 0)
(0.573651 0.000183079 0)
(0.570454 0.00016934 0)
(0.567263 0.000147112 0)
(0.564271 0.000126817 0)
(0.561766 0.000122794 0)
(0.558765 0.000104531 0)
(0.557147 9.4407e-05 0)
(0.554004 7.33006e-05 0)
(0.553375 7.33106e-05 0)
(0.549975 4.41834e-05 0)
(0.550503 4.31917e-05 0)
(0.546801 2.90156e-06 0)
(0.548787 -1.36604e-05 0)
(0.545072 -6.73317e-05 0)
(0.549066 -0.000281086 0)
(1.0325 0.00264558 0)
(1.03076 0.00359343 0)
(1.02902 0.00461491 0)
(1.02739 0.0055787 0)
(1.02647 0.00638581 0)
(1.0257 0.00697029 0)
(1.02541 0.00725042 0)
(1.02505 0.00733051 0)
(1.02493 0.00724427 0)
(1.0247 0.00713449 0)
(1.02462 0.00702919 0)
(1.02458 0.00703332 0)
(1.02461 0.00706567 0)
(1.02475 0.00719446 0)
(1.02481 0.00735313 0)
(1.02497 0.00754394 0)
(1.02491 0.00774705 0)
(1.02492 0.00795948 0)
(1.0247 0.00820132 0)
(1.02445 0.00837465 0)
(1.02406 0.00856131 0)
(1.02344 0.00866622 0)
(1.02289 0.00877859 0)
(1.02191 0.00870449 0)
(1.02119 0.00850246 0)
(1.01978 0.00801595 0)
(1.0187 0.0073229 0)
(1.01682 0.00645517 0)
(1.01528 0.00546607 0)
(1.01304 0.0046487 0)
(1.01103 0.00394435 0)
(1.00862 0.00354216 0)
(1.00632 0.003229 0)
(1.00393 0.00306513 0)
(1.00147 0.00292042 0)
(0.998972 0.00279904 0)
(0.996376 0.00280249 0)
(0.993651 0.00272556 0)
(0.991006 0.0027184 0)
(0.987898 0.00265628 0)
(0.985232 0.00261051 0)
(0.98186 0.002571 0)
(0.979088 0.00254956 0)
(0.975529 0.00255151 0)
(0.97242 0.00252045 0)
(0.9686 0.00255818 0)
(0.964966 0.00246805 0)
(0.960976 0.00239244 0)
(0.956999 0.0023479 0)
(0.952759 0.00223546 0)
(0.948827 0.00221674 0)
(0.944177 0.00215934 0)
(0.940168 0.0021182 0)
(0.93515 0.00209647 0)
(0.930808 0.00199241 0)
(0.925678 0.0019234 0)
(0.921005 0.00185628 0)
(0.915872 0.00178768 0)
(0.911001 0.0017466 0)
(0.905655 0.00169246 0)
(0.900839 0.00164988 0)
(0.894979 0.00155359 0)
(0.890396 0.00150048 0)
(0.884329 0.00150549 0)
(0.879218 0.00137749 0)
(0.873786 0.00130224 0)
(0.868345 0.00135706 0)
(0.862374 0.00128649 0)
(0.857431 0.00118584 0)
(0.851138 0.00112512 0)
(0.84647 0.00108258 0)
(0.840271 0.00110417 0)
(0.834878 0.00102839 0)
(0.829434 0.000896237 0)
(0.824375 0.000925032 0)
(0.81818 0.000904605 0)
(0.813662 0.000784768 0)
(0.807986 0.000764244 0)
(0.803092 0.000754162 0)
(0.797764 0.000667678 0)
(0.7933 0.000619922 0)
(0.788114 0.000606843 0)
(0.783756 0.000559283 0)
(0.779022 0.000507316 0)
(0.774902 0.00046292 0)
(0.770601 0.000443045 0)
(0.766524 0.000406077 0)
(0.762847 0.000367825 0)
(0.758897 0.00032341 0)
(0.755814 0.000313961 0)
(0.751879 0.000271895 0)
(0.749551 0.000251996 0)
(0.745591 0.000211079 0)
(0.744046 0.000201353 0)
(0.740079 0.000157031 0)
(0.739378 0.000137622 0)
(0.735481 9.49256e-05 0)
(0.735747 3.27344e-05 0)
(0.732344 5.02672e-06 0)
(0.733789 -0.00031856 0)
(1.03272 0.00245506 0)
(1.031 0.0032021 0)
(1.02924 0.00418368 0)
(1.02758 0.00525197 0)
(1.02657 0.00618566 0)
(1.02574 0.00689353 0)
(1.02536 0.00723567 0)
(1.02497 0.00732143 0)
(1.02485 0.00718255 0)
(1.02466 0.00701929 0)
(1.02469 0.00686339 0)
(1.0247 0.0068384 0)
(1.02492 0.00687064 0)
(1.02512 0.00701001 0)
(1.02545 0.00720762 0)
(1.02568 0.00742407 0)
(1.02599 0.00766735 0)
(1.02615 0.00788996 0)
(1.02642 0.00815478 0)
(1.02649 0.00832962 0)
(1.02676 0.00852791 0)
(1.02675 0.00863748 0)
(1.02707 0.00873097 0)
(1.02707 0.00864983 0)
(1.02745 0.00841633 0)
(1.02736 0.00792114 0)
(1.02757 0.0072042 0)
(1.02715 0.00632612 0)
(1.02691 0.00532451 0)
(1.02605 0.00449688 0)
(1.02533 0.00380344 0)
(1.02419 0.00342052 0)
(1.02328 0.00314751 0)
(1.02214 0.00302868 0)
(1.02125 0.00292344 0)