/*--------------------------------*- C++ -*----------------------------------*\
  =========                 |
  \\      /  F ield         | OpenFOAM: The Open Source CFD Toolbox
   \\    /   O peration     | Website:  https://openfoam.org
    \\  /    A nd           | Version:  6
     \\/     M anipulation  |
\*---------------------------------------------------------------------------*/
FoamFile
{
    version     2.0;
    format      ascii;
    class       volScalarField;
    location    "0.4";
    object      p;
}
// * * * * * * * * * * * * * * * * * * * * * * * * * * * * * * * * * * * * * //

dimensions      [0 2 -2 0 0 0 0];

internalField   nonuniform List<scalar> 
4800
(
-8.36711e-11
-1.98429e-05
0.00010286
0.000194414
0.000183337
0.000280372
0.000567738
0.000581339
0.000567709
0.000759268
0.000883282
0.000620743
0.000133632
-0.000279341
-0.000676137
-0.00114374
-0.00161166
-0.00202999
-0.00235161
-0.00234933
1.67701e-06
-1.90015e-05
0.000101452
0.000194001
0.000183519
0.000281305
0.000567563
0.000583446
0.000567056
0.000755659
0.000881244
0.00062424
0.000138855
-0.000274592
-0.000675436
-0.00114927
-0.00162072
-0.0020446
-0.00236511
-0.00239709
3.07479e-06
-1.71924e-05
9.75743e-05
0.00019727
0.000181864
0.000281475
0.000564083
0.000593373
0.000566017
0.000744344
0.000874542
0.000635737
0.000159018
-0.00025796
-0.000676513
-0.00117034
-0.00165074
-0.002078
-0.00238862
-0.00252103
3.92901e-06
-1.33554e-05
9.11974e-05
0.000202416
0.000178757
0.000281196
0.000556401
0.000612166
0.000567608
0.000724038
0.00085997
0.000653137
0.000200167
-0.00022738
-0.000677972
-0.00120686
-0.00170486
-0.00212897
-0.00243315
-0.00267398
4.89899e-06
-8.96974e-06
8.33317e-05
0.000206451
0.000179598
0.000278154
0.00054442
0.000633888
0.00057641
0.000700704
0.000839004
0.000671038
0.00025632
-0.000184649
-0.0006748
-0.00125301
-0.00176969
-0.00219837
-0.00250909
-0.00279379
6.01466e-06
-5.56763e-06
7.81407e-05
0.000204526
0.000185732
0.000273862
0.000530725
0.000649035
0.000593814
0.00068681
0.000816801
0.000682986
0.000310802
-0.000134291
-0.000663932
-0.00129447
-0.00182988
-0.00226612
-0.00259455
-0.0028617
7.38536e-06
-2.3458e-06
7.64987e-05
0.000193568
0.000197832
0.000274247
0.000513394
0.000652811
0.000614952
0.000692012
0.00080128
0.000689273
0.000348331
-8.6104e-05
-0.000641102
-0.00131654
-0.00188015
-0.00232351
-0.00267346
-0.00289505
6.50844e-06
2.06671e-06
7.75334e-05
0.000180118
0.000208543
0.000278845
0.000497645
0.000649237
0.000626964
0.00071536
0.00080418
0.000693505
0.000363904
-4.82774e-05
-0.000606245
-0.00131637
-0.00191583
-0.00238126
-0.00274993
-0.00295139
2.10916e-06
9.51312e-06
8.1258e-05
0.000166574
0.000208055
0.000289763
0.000495182
0.000633491
0.000624818
0.000748305
0.000827448
0.000698479
0.000374315
-1.88301e-05
-0.000569935
-0.00129876
-0.00195106
-0.00245468
-0.00283791
-0.00307404
9.65989e-08
1.65894e-05
8.32881e-05
0.000155764
0.000202442
0.000298193
0.000500636
0.000613796
0.000624876
0.000768635
0.000855045
0.000718171
0.000404228
4.70106e-06
-0.000544021
-0.00127887
-0.00199502
-0.00255692
-0.00293309
-0.00307733
3.00101e-06
1.5574e-05
8.41903e-05
0.000158491
0.000190314
0.000286085
0.000517143
0.000619884
0.000621896
0.000752181
0.000882797
0.000766453
0.000448347
2.54342e-05
-0.000518347
-0.00126671
-0.00205259
-0.00268644
-0.00303487
-0.00301641
5.97877e-06
6.66091e-06
8.8884e-05
0.00017217
0.000167924
0.000265815
0.000547405
0.000639337
0.000597946
0.000729202
0.000920302
0.000814169
0.000477895
6.23056e-05
-0.000476947
-0.00126951
-0.00213319
-0.00281992
-0.00318798
-0.00315424
5.71358e-06
-3.06208e-06
9.48588e-05
0.000187461
0.000152527
0.000251474
0.000555609
0.000644361
0.00059171
0.000745162
0.000934001
0.000810723
0.000494218
0.000124921
-0.000436991
-0.00129487
-0.00221803
-0.0029184
-0.00334721
-0.00354825
3.25118e-06
-6.43324e-06
9.7482e-05
0.000198464
0.000152255
0.000234323
0.00052572
0.000650241
0.000629416
0.000766509
0.000896207
0.000781807
0.000518931
0.000167074
-0.000436353
-0.00132344
-0.00225638
-0.00301573
-0.00361813
-0.00418285
3.4158e-06
3.09985e-07
9.08327e-05
0.000193803
0.000162209
0.000224099
0.000485108
0.000651425
0.000658901
0.000767109
0.00087972
0.000783658
0.000499254
0.000109354
-0.000483181
-0.00132209
-0.00225117
-0.0031829
-0.00408925
-0.00497042
9.31932e-06
1.14581e-05
6.84185e-05
0.000173506
0.000187749
0.000236957
0.000442766
0.000614404
0.000657924
0.00079609
0.000925268
0.000756873
0.000356139
-3.94042e-05
-0.000530117
-0.00130236
-0.00231559
-0.00350032
-0.00469189
-0.00572735
1.67142e-05
1.53723e-05
3.91189e-05
0.000158486
0.000224837
0.000256394
0.000394747
0.000556882
0.000656425
0.00083479
0.000928083
0.000640512
0.000170654
-0.000165083
-0.000572721
-0.00138608
-0.00259315
-0.00396818
-0.00525963
-0.00627528
1.82126e-05
9.38069e-06
2.65e-05
0.000161756
0.000244532
0.000254278
0.000359219
0.00052265
0.000636398
0.000782793
0.000828785
0.000534968
8.94364e-05
-0.000260977
-0.000755538
-0.00171903
-0.0030696
-0.00444432
-0.00562995
-0.00653443
1.24623e-05
4.208e-06
4.22987e-05
0.000167596
0.000218926
0.00022598
0.000357809
0.000517443
0.000560669
0.000630128
0.000704083
0.000511082
5.71283e-05
-0.000471031
-0.00116905
-0.00221967
-0.00352326
-0.00475994
-0.0057817
-0.0065725
6.39557e-06
1.02408e-05
6.76564e-05
0.000148639
0.000157536
0.000199836
0.000390152
0.000517637
0.000446691
0.000448694
0.000575049
0.000452361
-8.19335e-05
-0.000816213
-0.00164251
-0.00264577
-0.00381507
-0.00494316
-0.00586386
-0.00651489
7.33655e-06
2.16767e-05
7.01398e-05
0.000107123
0.000114106
0.000205353
0.000416848
0.00048367
0.000319954
0.000262596
0.000379053
0.000263944
-0.000325499
-0.00115344
-0.00199852
-0.00294906
-0.00403334
-0.00508809
-0.00589863
-0.00632069
1.34691e-05
2.23407e-05
4.57127e-05
8.39373e-05
0.000126783
0.000215812
0.000367735
0.000378096
0.0001927
8.99413e-05
0.00013676
-7.1308e-06
-0.000601474
-0.00143897
-0.00228232
-0.00319461
-0.00417274
-0.00507846
-0.00571585
-0.00593584
1.65655e-05
1.06918e-05
2.58288e-05
9.98503e-05
0.000155354
0.000166644
0.000222911
0.000235647
0.000114023
-2.14231e-05
-0.000103037
-0.000341198
-0.000936706
-0.00174143
-0.00253298
-0.00329893
-0.00408357
-0.0048234
-0.00536962
-0.00559413
1.45737e-05
3.89204e-06
2.86083e-05
0.000114602
0.000132366
6.03483e-05
7.25823e-05
0.000144238
8.89169e-05
-0.000128607
-0.000402599
-0.000769561
-0.00133214
-0.00201516
-0.00264103
-0.00319764
-0.00382749
-0.00452612
-0.00513891
-0.0054976
1.34717e-05
1.02882e-05
3.27081e-05
8.5373e-05
6.53225e-05
-1.71598e-05
4.46738e-06
8.6154e-05
-1.22075e-05
-0.000364833
-0.000789872
-0.00119124
-0.00163352
-0.00212693
-0.00258788
-0.0030593
-0.00366737
-0.00438758
-0.00504936
-0.00545523
1.58767e-05
1.75377e-05
1.79491e-05
3.15858e-05
1.75138e-05
-2.93712e-05
-3.70717e-05
-6.11997e-05
-0.000276503
-0.0006963
-0.00110868
-0.00142074
-0.00173299
-0.00212642
-0.0025865
-0.00311548
-0.00372124
-0.00434888
-0.00489856
-0.00525533
1.74946e-05
1.50447e-05
-2.82659e-06
-3.38375e-06
-7.90604e-08
-5.03633e-05
-0.000153479
-0.000307753
-0.00057845
-0.000932535
-0.00123436
-0.00148701
-0.00180529
-0.00227214
-0.00283567
-0.00338027
-0.00385344
-0.00425882
-0.00463622
-0.00499915
1.57538e-05
8.18537e-06
-1.2159e-05
-1.97317e-05
-3.61522e-05
-0.000137603
-0.000316509
-0.000516809
-0.000758111
-0.00102877
-0.00131477
-0.00165602
-0.00210063
-0.0026557
-0.00320243
-0.00360312
-0.00385414
-0.00407507
-0.00438983
-0.00484742
1.32156e-05
4.0444e-06
-1.67521e-05
-4.52201e-05
-0.000106481
-0.000244467
-0.000428647
-0.000621098
-0.00085123
-0.00115418
-0.0015608
-0.00203183
-0.00252941
-0.00300074
-0.00336936
-0.0035982
-0.00374508
-0.00396524
-0.00434299
-0.00486667
1.16466e-05
2.02776e-07
-2.97641e-05
-8.29757e-05
-0.000173407
-0.000311207
-0.000484074
-0.000698406
-0.000985133
-0.00139275
-0.00189368
-0.00237191
-0.00277685
-0.00309376
-0.00335878
-0.00360812
-0.00387887
-0.00421934
-0.00462494
-0.00504297
9.39078e-06
-7.06051e-06
-4.88259e-05
-0.000115248
-0.000212808
-0.000349739
-0.000544612
-0.000805863
-0.00114892
-0.0015941
-0.00206257
-0.00247248
-0.00282181
-0.00316396
-0.00355905
-0.00400227
-0.00443969
-0.0047855
-0.00500436
-0.00509122
5.06234e-06
-1.58843e-05
-6.51024e-05
-0.000136602
-0.000239112
-0.000392467
-0.000613994
-0.000888856
-0.00122585
-0.0016192
-0.00203126
-0.00246098
-0.00292448
-0.00345743
-0.00403538
-0.00457801
-0.00496784
-0.00510448
-0.0050079
-0.00477298
-6.37999e-07
-2.36869e-05
-7.7232e-05
-0.000154273
-0.000265032
-0.000428171
-0.000641349
-0.000890539
-0.00118639
-0.0015324
-0.00195994
-0.00248045
-0.00307019
-0.00368852
-0.00425798
-0.00469623
-0.00492697
-0.0049411
-0.00481281
-0.00466759
-6.88601e-06
-3.10571e-05
-8.74468e-05
-0.000169205
-0.000281094
-0.000430781
-0.000613719
-0.000834401
-0.00109863
-0.00143184
-0.00186658
-0.0023751
-0.00290578
-0.0034051
-0.00384929
-0.00423059
-0.00456
-0.00486415
-0.00514997
-0.0054225
-1.36856e-05
-3.88441e-05
-9.49265e-05
-0.000175931
-0.00027836
-0.000405235
-0.000562723
-0.000756994
-0.000986648
-0.00127393
-0.00161212
-0.00197375
-0.00233792
-0.00271118
-0.00313627
-0.00365677
-0.00429482
-0.00499928
-0.00565399
-0.00614041
-2.08798e-05
-4.62407e-05
-9.87227e-05
-0.00017376
-0.000263304
-0.000371438
-0.000502122
-0.000651459
-0.000816535
-0.00100104
-0.00119949
-0.00142803
-0.00170519
-0.00205891
-0.00251013
-0.00306642
-0.00369902
-0.00434743
-0.00494981
-0.0054511
-2.77742e-05
-5.29341e-05
-0.000100333
-0.000167752
-0.000245398
-0.000334014
-0.000426339
-0.000519047
-0.000607409
-0.000694778
-0.000802378
-0.000963641
-0.00119445
-0.00148911
-0.00181949
-0.00215604
-0.00248605
-0.00284755
-0.00332294
-0.0040135
-3.30692e-05
-5.94968e-05
-0.000101633
-0.000162468
-0.00022778
-0.000294814
-0.000352475
-0.000401753
-0.000436164
-0.000466551
-0.000508705
-0.000576748
-0.000681437
-0.000827139
-0.00102423
-0.00128629
-0.00164243
-0.00212996
-0.00279586
-0.0036978
-3.84059e-05
-6.40142e-05
-0.000104099
-0.000158995
-0.000215723
-0.000268078
-0.000309761
-0.000331804
-0.000335226
-0.000320478
-0.000290779
-0.000263315
-0.000270199
-0.000368936
-0.000632988
-0.00112662
-0.00187021
-0.00280707
-0.00382801
-0.00481539
-4.26614e-05
-6.56513e-05
-0.000106539
-0.000158009
-0.000213346
-0.000262261
-0.000299543
-0.000309464
-0.000292938
-0.00024235
-0.000175106
-0.000132816
-0.000168388
-0.000348628
-0.000739544
-0.00141501
-0.00244239
-0.0038244
-0.00535789
-0.00651418
-0.00181246
-0.00088815
-0.000235526
-0.000125757
-0.000482787
-0.00119684
-0.00212483
-0.00297571
-0.00358752
-0.00401784
-0.00431408
-0.0045036
-0.00481081
-0.00536697
-0.00602446
-0.00664887
-0.00719485
-0.00772354
-0.00819665
-0.00863109
-0.00937473
-0.010312
-0.0111228
-0.0119983
-0.0128776
-0.0136599
-0.0144699
-0.0151761
-0.01559
-0.0155186
-0.0152215
-0.0151386
-0.0150829
-0.015022
-0.0149653
-0.0146625
-0.0145056
-0.0147677
-0.0150047
-0.0151257
-0.0153221
-0.0155306
-0.0157042
-0.0159196
-0.0162325
-0.016546
-0.0167558
-0.0169741
-0.0172458
-0.0174632
-0.0176603
-0.0178781
-0.0180816
-0.018321
-0.0185845
-0.018787
-0.0190041
-0.0192779
-0.0194913
-0.0196532
-0.0198959
-0.0201841
-0.0204112
-0.0206133
-0.0208595
-0.0211266
-0.0213738
-0.0216199
-0.0218823
-0.0221578
-0.0224358
-0.0227202
-0.0230128
-0.023312
-0.0236178
-0.0239286
-0.0242467
-0.0245705
-0.0249011
-0.0252392
-0.0255832
-0.0259364
-0.0262952
-0.0266627
-0.0270369
-0.027418
-0.0278071
-0.0282025
-0.0286044
-0.0290156
-0.0294292
-0.0298544
-0.030281
-0.0307149
-0.0311521
-0.0315891
-0.0320194
-0.0324425
-0.0328148
-0.03315
-0.00198571
-0.00111815
-0.000445659
-0.000285631
-0.000594115
-0.00127867
-0.00217615
-0.00301181
-0.00362732
-0.00405185
-0.00434497
-0.00454227
-0.00484887
-0.00539902
-0.00605313
-0.00667931
-0.00722763
-0.00775111
-0.00822074
-0.00864859
-0.00938263
-0.0103236
-0.0111323
-0.0119896
-0.0128559
-0.0136334
-0.0144353
-0.0151329
-0.015549
-0.0154844
-0.0151953
-0.0151245
-0.0150723
-0.015011
-0.0149596
-0.0146579
-0.0145004
-0.0147661
-0.0150039
-0.0151238
-0.0153209
-0.0155297
-0.0157032
-0.0159182
-0.0162303
-0.0165437
-0.0167536
-0.0169721
-0.0172441
-0.0174617
-0.0176592
-0.0178773
-0.0180807
-0.0183202
-0.0185841
-0.0187863
-0.0190034
-0.0192778
-0.0194913
-0.0196529
-0.0198957
-0.0201842
-0.0204113
-0.0206133
-0.0208596
-0.0211267
-0.0213739
-0.02162
-0.0218823
-0.0221578
-0.0224358
-0.0227203
-0.0230128
-0.023312
-0.0236178
-0.0239286
-0.0242468
-0.0245705
-0.0249011
-0.0252392
-0.0255832
-0.0259364
-0.0262952
-0.0266627
-0.0270369
-0.027418
-0.0278071
-0.0282025
-0.0286044
-0.0290156
-0.0294292
-0.0298544
-0.030281
-0.0307149
-0.0311521
-0.0315891
-0.0320194
-0.0324426
-0.0328152
-0.0331503
-0.00221227
-0.00141053
-0.00073155
-0.000511456
-0.000747875
-0.00137932
-0.00222641
-0.00304178
-0.00366491
-0.00408097
-0.00436609
-0.00458052
-0.00489486
-0.00543828
-0.00608823
-0.0067122
-0.00726978
-0.00778959
-0.00824279
-0.00867315
-0.00940018
-0.0103279
-0.0111348
-0.0119678
-0.0128083
-0.0135815
-0.0143702
-0.015045
-0.0154524
-0.0154068
-0.015148
-0.0150949
-0.0150485
-0.0149867
-0.0149384
-0.0146479
-0.0144968
-0.0147629
-0.0150026
-0.0151225
-0.0153179
-0.0155269
-0.015702
-0.0159179
-0.0162285
-0.0165394
-0.0167491
-0.0169688
-0.0172406
-0.0174574
-0.0176557
-0.0178749
-0.0180785
-0.0183179
-0.0185818
-0.0187841
-0.0190012
-0.0192758
-0.0194899
-0.0196519
-0.0198948
-0.0201832
-0.0204104
-0.0206127
-0.0208592
-0.0211264
-0.0213736
-0.0216198
-0.0218823
-0.0221578
-0.0224358
-0.0227203
-0.0230128
-0.023312
-0.0236179
-0.0239286
-0.0242468
-0.0245706
-0.0249011
-0.0252393
-0.0255833
-0.0259365
-0.0262952
-0.0266627
-0.0270369
-0.027418
-0.0278071
-0.0282025
-0.0286044
-0.0290156
-0.0294292
-0.0298544
-0.030281
-0.0307149
-0.0311521
-0.0315892
-0.0320195
-0.0324429
-0.0328165
-0.0331516
-0.00241654
-0.00168949
-0.00104196
-0.00079164
-0.000955661
-0.00150517
-0.0022758
-0.00306296
-0.00369254
-0.00409327
-0.00436133
-0.00459777
-0.00493887
-0.00548199
-0.00611854
-0.00674265
-0.00732119
-0.00782602
-0.0082511
-0.00870257
-0.00941998
-0.0103125
-0.0111225
-0.0119378
-0.012744
-0.0135036
-0.0142766
-0.0149209
-0.0153133
-0.0153042
-0.0150851
-0.0150477
-0.0150182
-0.0149524
-0.0149041
-0.0146419
-0.0144976
-0.0147552
-0.0150003
-0.0151195
-0.0153098
-0.015522
-0.0157006
-0.015919
-0.0162282
-0.0165323
-0.0167409
-0.0169641
-0.0172342
-0.0174483
-0.0176486
-0.0178705
-0.0180741
-0.0183126
-0.018577
-0.0187802
-0.0189967
-0.0192707
-0.019486
-0.0196499
-0.0198928
-0.0201804
-0.0204079
-0.0206112
-0.020858
-0.0211252
-0.0213726
-0.0216192
-0.021882
-0.0221576
-0.0224357
-0.0227202
-0.0230127
-0.0233119
-0.0236178
-0.0239286
-0.0242468
-0.0245706
-0.0249012
-0.0252393
-0.0255833
-0.0259365
-0.0262952
-0.0266627
-0.0270369
-0.027418
-0.0278071
-0.0282025
-0.0286045
-0.0290156
-0.0294292
-0.0298544
-0.0302811
-0.030715
-0.0311522
-0.0315894
-0.0320199
-0.0324433
-0.0328187
-0.0331539
-0.00257001
-0.0019437
-0.00136775
-0.00112854
-0.0012335
-0.00166877
-0.00233004
-0.00307505
-0.00370716
-0.00409184
-0.00433395
-0.00459488
-0.00498884
-0.00553933
-0.00615049
-0.00678258
-0.00738547
-0.00785277
-0.00824834
-0.00873848
-0.00943793
-0.0102812
-0.011102
-0.011907
-0.0126685
-0.0134031
-0.0141581
-0.0147733
-0.0151586
-0.0151932
-0.0150123
-0.0149943
-0.0149866
-0.0149151
-0.0148728
-0.0146447
-0.0144978
-0.0147426
-0.0149991
-0.0151181
-0.0153017
-0.0155181
-0.0157004
-0.0159221
-0.0162284
-0.016522
-0.0167294
-0.0169578
-0.0172253
-0.0174363
-0.0176399
-0.017865
-0.0180681
-0.0183055
-0.0185706
-0.018775
-0.0189905
-0.0192633
-0.0194806
-0.0196473
-0.0198899
-0.0201761
-0.0204043
-0.020609
-0.0208562
-0.0211232
-0.021371
-0.0216184
-0.0218814
-0.0221572
-0.0224353
-0.0227199
-0.0230125
-0.0233117
-0.0236177
-0.0239285
-0.0242467
-0.0245706
-0.0249012
-0.0252394
-0.0255834
-0.0259366
-0.0262953
-0.0266628
-0.027037
-0.027418
-0.0278071
-0.0282026
-0.0286045
-0.0290157
-0.0294293
-0.0298545
-0.0302811
-0.0307151
-0.0311524
-0.0315896
-0.0320204
-0.0324438
-0.0328216
-0.033157
-0.00268656
-0.00218958
-0.00171314
-0.00151062
-0.00157254
-0.00187421
-0.0024026
-0.0030864
-0.00371236
-0.00408783
-0.00430072
-0.00458637
-0.00504912
-0.00561046
-0.00619546
-0.00683979
-0.00745379
-0.00787125
-0.0082438
-0.00877654
-0.00945447
-0.0102465
-0.0110797
-0.0118707
-0.012579
-0.0132854
-0.0140253
-0.0146222
-0.0150057
-0.0150776
-0.0149358
-0.0149386
-0.0149525
-0.0148839
-0.0148502
-0.0146481
-0.0144946
-0.0147293
-0.0150014
-0.0151212
-0.0152953
-0.0155137
-0.0157008
-0.0159262
-0.0162278
-0.0165094
-0.0167166
-0.0169509
-0.0172154
-0.0174231
-0.0176303
-0.0178588
-0.0180615
-0.0182979
-0.0185636
-0.0187688
-0.0189832
-0.0192551
-0.0194749
-0.0196444
-0.0198864
-0.0201711
-0.0204002
-0.0206065
-0.020854
-0.0211209
-0.0213693
-0.0216173
-0.0218807
-0.0221565
-0.0224347
-0.0227194
-0.0230121
-0.0233114
-0.0236174
-0.0239283
-0.0242466
-0.0245705
-0.0249012
-0.0252394
-0.0255835
-0.0259367
-0.0262954
-0.0266629
-0.0270371
-0.0274181
-0.0278072
-0.0282026
-0.0286045
-0.0290157
-0.0294293
-0.0298546
-0.0302812
-0.0307153
-0.0311526
-0.0315899
-0.0320211
-0.0324446
-0.032825
-0.0331604
-0.0027734
-0.00243612
-0.00208504
-0.001926
-0.00195137
-0.00212384
-0.0025116
-0.00310961
-0.00370665
-0.00407734
-0.00427621
-0.00458794
-0.00511147
-0.00568597
-0.00626185
-0.00691176
-0.0075157
-0.00789115
-0.00824391
-0.00880803
-0.00947056
-0.0102182
-0.0110549
-0.0118203
-0.012477
-0.0131643
-0.0138967
-0.0144788
-0.0148507
-0.0149542
-0.0148555
-0.0148759
-0.0149177
-0.0148626
-0.0148296
-0.0146487
-0.0144945
-0.0147187
-0.0150055
-0.0151265
-0.0152875
-0.0155072
-0.0157008
-0.0159295
-0.0162259
-0.0164955
-0.0167022
-0.016943
-0.0172048
-0.0174088
-0.0176199
-0.0178524
-0.0180548
-0.0182896
-0.0185555
-0.0187618
-0.0189756
-0.0192467
-0.0194688
-0.019641
-0.0198824
-0.0201657
-0.0203957
-0.0206038
-0.0208516
-0.0211183
-0.0213672
-0.0216159
-0.0218797
-0.0221556
-0.022434
-0.0227189
-0.0230117
-0.023311
-0.023617
-0.023928
-0.0242464
-0.0245704
-0.0249012
-0.0252395
-0.0255836
-0.0259368
-0.0262955
-0.026663
-0.0270372
-0.0274182
-0.0278072
-0.0282027
-0.0286045
-0.0290157
-0.0294294
-0.0298546
-0.0302813
-0.0307154
-0.0311529
-0.0315903
-0.0320219
-0.0324456
-0.0328285
-0.0331641
-0.00283673
-0.0026778
-0.00248927
-0.0023765
-0.00235623
-0.00241585
-0.00266476
-0.00314806
-0.00367822
-0.00404131
-0.0042661
-0.004613
-0.00516636
-0.00575638
-0.00634664
-0.00698918
-0.00756851
-0.00791654
-0.00824906
-0.00882997
-0.00948575
-0.0101977
-0.0110222
-0.0117539
-0.0123716
-0.01305
-0.013774
-0.0143306
-0.0146821
-0.0148211
-0.0147706
-0.0148128
-0.0148903
-0.0148464
-0.0148076
-0.0146524
-0.0144984
-0.0147056
-0.0150057
-0.0151281
-0.0152762
-0.0154996
-0.0156998
-0.0159305
-0.0162226
-0.0164801
-0.0166857
-0.0169342
-0.0171941
-0.0173938
-0.0176085
-0.0178454
-0.0180472
-0.0182799
-0.0185461
-0.0187543
-0.0189678
-0.0192376
-0.0194617
-0.0196369
-0.0198779
-0.0201598
-0.0203908
-0.0206006
-0.0208488
-0.0211153
-0.0213647
-0.0216144
-0.0218786
-0.0221547
-0.0224333
-0.0227183
-0.0230113
-0.0233107
-0.0236168
-0.0239278
-0.0242463
-0.0245704
-0.0249012
-0.0252395
-0.0255837
-0.0259369
-0.0262957
-0.0266631
-0.0270373
-0.0274183
-0.0278073
-0.0282027
-0.0286046
-0.0290158
-0.0294294
-0.0298547
-0.0302815
-0.0307156
-0.0311532
-0.0315907
-0.0320228
-0.0324467
-0.032832
-0.033168
-0.00292179
-0.0029217
-0.00292976
-0.00287283
-0.0027867
-0.00273855
-0.00285327
-0.00319499
-0.00362
-0.00397044
-0.00426881
-0.00466758
-0.0052156
-0.00581771
-0.00643753
-0.00706775
-0.00761707
-0.00794472
-0.00826157
-0.00884756
-0.0094935
-0.0101715
-0.0109736
-0.0116777
-0.0122717
-0.0129383
-0.0136405
-0.0141694
-0.0145101
-0.0146889
-0.0146898
-0.0147603
-0.0148658
-0.014821
-0.01478
-0.0146557
-0.014497
-0.0146844
-0.015001
-0.0151271
-0.0152644
-0.015493
-0.0156974
-0.0159286
-0.0162174
-0.0164631
-0.0166677
-0.016925
-0.017183
-0.0173772
-0.0175957
-0.0178375
-0.0180386
-0.018269
-0.0185363
-0.0187469
-0.0189595
-0.0192275
-0.019454
-0.0196327
-0.0198734
-0.0201537
-0.0203857
-0.0205974
-0.0208459
-0.0211123
-0.0213624
-0.0216129
-0.0218776
-0.0221539
-0.0224326
-0.0227178
-0.0230108
-0.0233102
-0.0236163
-0.0239275
-0.024246
-0.0245702
-0.0249011
-0.0252396
-0.0255838
-0.025937
-0.0262958
-0.0266632
-0.0270374
-0.0274183
-0.0278074
-0.0282028
-0.0286047
-0.0290158
-0.0294295
-0.0298548
-0.0302816
-0.0307157
-0.0311536
-0.0315911
-0.0320238
-0.032448
-0.0328356
-0.0331722
-0.00300614
-0.00319328
-0.00340554
-0.00341233
-0.00324153
-0.00307294
-0.0030572
-0.00324315
-0.0035423
-0.00388057
-0.00427901
-0.00474506
-0.00527518
-0.00587775
-0.00652907
-0.00715071
-0.00766213
-0.00797175
-0.00828324
-0.00886091
-0.00948263
-0.0101274
-0.0109167
-0.0116115
-0.0121868
-0.012822
-0.0134889
-0.0140067
-0.0143537
-0.0145647
-0.0146105
-0.0147042
-0.0148246
-0.0147794
-0.0147455
-0.0146557
-0.0144948
-0.0146637
-0.0149972
-0.0151274
-0.0152509
-0.0154825
-0.0156914
-0.0159228
-0.016209
-0.0164452
-0.0166499
-0.0169157
-0.0171713
-0.0173603
-0.0175827
-0.0178292
-0.0180294
-0.0182582
-0.0185269
-0.0187394
-0.0189507
-0.0192172
-0.0194465
-0.0196286
-0.0198687
-0.0201473
-0.0203803
-0.020594
-0.0208428
-0.0211091
-0.0213599
-0.0216113
-0.0218763
-0.0221527
-0.0224316
-0.0227169
-0.02301
-0.0233096
-0.0236158
-0.0239271
-0.0242458
-0.0245701
-0.0249011
-0.0252396
-0.0255839
-0.0259372
-0.0262959
-0.0266633
-0.0270375
-0.0274184
-0.0278074
-0.0282028
-0.0286047
-0.0290159
-0.0294296
-0.0298548
-0.0302819
-0.0307159
-0.031154
-0.0315916
-0.032025
-0.0324495
-0.0328391
-0.0331766
-0.00312253
-0.00351954
-0.00390265
-0.00395808
-0.00369558
-0.00339148
-0.00324483
-0.00327753
-0.0034575
-0.00379424
-0.00428594
-0.00482596
-0.00535772
-0.00595247
-0.00662333
-0.0072295
-0.00769054
-0.00799307
-0.00831365
-0.00886792
-0.00945641
-0.0100841
-0.0108754
-0.0115619
-0.0121064
-0.0126921
-0.013322
-0.0138489
-0.014212
-0.0144435
-0.01452
-0.0146278
-0.0147691
-0.0147373
-0.0147105
-0.0146562
-0.0145008
-0.0146453
-0.0149876
-0.0151217
-0.015228
-0.0154627
-0.0156843
-0.0159188
-0.0162012
-0.0164296
-0.0166351
-0.0169073
-0.0171598
-0.0173435
-0.0175691
-0.0178203
-0.0180207
-0.0182481
-0.0185173
-0.018731
-0.0189412
-0.0192064
-0.0194385
-0.0196239
-0.0198631
-0.0201399
-0.0203742
-0.02059
-0.0208393
-0.0211053
-0.0213568
-0.0216092
-0.0218747
-0.0221512
-0.0224304
-0.0227161
-0.0230095
-0.0233091
-0.0236155
-0.0239269
-0.0242456
-0.02457
-0.0249011
-0.0252396
-0.0255839
-0.0259373
-0.026296
-0.0266634
-0.0270376
-0.0274185
-0.0278075
-0.0282029
-0.0286048
-0.0290159
-0.0294298
-0.0298549
-0.0302821
-0.0307161
-0.0311546
-0.0315921
-0.0320264
-0.0324511
-0.0328427
-0.0331812
-0.00338617
-0.00392695
-0.00438542
-0.0044355
-0.00408749
-0.0036542
-0.00337631
-0.0032738
-0.00337386
-0.00372847
-0.00428665
-0.00489279
-0.00545717
-0.00605359
-0.00671776
-0.00728352
-0.00769214
-0.0080112
-0.00836059
-0.00887462
-0.00942919
-0.0100668
-0.0108449
-0.0114893
-0.0120029
-0.0125548
-0.0131572
-0.0136965
-0.0140768
-0.014323
-0.01442
-0.0145394
-0.0147109
-0.0147001
-0.0146726
-0.014648
-0.0145029
-0.0146194
-0.0149658
-0.0151096
-0.0152026
-0.0154432
-0.0156841
-0.0159225
-0.0161962
-0.016415
-0.0166208
-0.0168984
-0.0171471
-0.0173254
-0.0175544
-0.0178113
-0.0180123
-0.0182369
-0.0185052
-0.0187207
-0.0189306
-0.0191945
-0.019429
-0.0196178
-0.0198565
-0.0201318
-0.0203676
-0.0205858
-0.0208355
-0.0211014
-0.0213536
-0.0216071
-0.0218732
-0.0221501
-0.0224296
-0.0227155
-0.023009
-0.0233086
-0.023615
-0.0239264
-0.0242452
-0.0245697
-0.0249009
-0.0252396
-0.025584
-0.0259374
-0.0262962
-0.0266636
-0.0270377
-0.0274186
-0.0278076
-0.0282029
-0.0286049
-0.029016
-0.0294299
-0.029855
-0.0302824
-0.0307164
-0.0311552
-0.0315927
-0.0320278
-0.0324528
-0.0328463
-0.0331861
-0.00389639
-0.00443781
-0.00481057
-0.00476697
-0.00434612
-0.0038212
-0.00342437
-0.00322387
-0.00330553
-0.0036964
-0.00429055
-0.00493681
-0.00555496
-0.00617888
-0.00680955
-0.00731229
-0.00768047
-0.00803837
-0.00842921
-0.00887953
-0.00939887
-0.0100655
-0.0107929
-0.0113655
-0.0118868
-0.0124496
-0.0130206
-0.013545
-0.0139358
-0.0142009
-0.0143193
-0.0144462
-0.0146373
-0.0146517
-0.0146271
-0.0146215
-0.0144942
-0.0145986
-0.0149481
-0.0151016
-0.0151841
-0.0154266
-0.0156851
-0.0159284
-0.0161912
-0.0163983
-0.0166049
-0.016888
-0.0171328
-0.0173055
-0.0175381
-0.0178009
-0.0180014
-0.0182221
-0.0184906
-0.0187094
-0.0189193
-0.0191815
-0.0194187
-0.0196116
-0.0198501
-0.020124
-0.0203614
-0.0205818
-0.0208318
-0.0210976
-0.0213506
-0.0216052
-0.0218718
-0.0221488
-0.0224284
-0.0227144
-0.0230079
-0.0233076
-0.0236142
-0.0239258
-0.0242449
-0.0245696
-0.024901
-0.0252397
-0.0255842
-0.0259375
-0.0262963
-0.0266637
-0.0270378
-0.0274187
-0.0278077
-0.028203
-0.028605
-0.029016
-0.0294301
-0.0298552
-0.0302827
-0.0307167
-0.0311558
-0.0315934
-0.0320294
-0.0324548
-0.03285
-0.0331911
-0.00465221
-0.00503107
-0.0051405
-0.00490912
-0.00442074
-0.00385249
-0.00337655
-0.00314084
-0.00326257
-0.00369934
-0.0043053
-0.00496709
-0.00565166
-0.00632279
-0.00690764
-0.00733913
-0.00767517
-0.00807359
-0.00849262
-0.00886375
-0.00935528
-0.0100583
-0.0107247
-0.0112344
-0.0117984
-0.0123902
-0.0129005
-0.0133723
-0.0137749
-0.0140726
-0.0142175
-0.0143431
-0.0145384
-0.0145913
-0.0145839
-0.0145866
-0.0144873
-0.0145973
-0.0149376
-0.0150887
-0.0151637
-0.0154086
-0.0156846
-0.0159352
-0.016187
-0.0163808
-0.0165854
-0.0168716
-0.0171137
-0.0172833
-0.0175197
-0.0177874
-0.0179881
-0.0182067
-0.0184762
-0.0186985
-0.0189082
-0.0191689
-0.0194092
-0.0196064
-0.0198444
-0.0201162
-0.0203547
-0.0205773
-0.0208276
-0.0210931
-0.0213469
-0.0216024
-0.0218695
-0.0221467
-0.0224266
-0.022713
-0.0230069
-0.023307
-0.0236139
-0.0239256
-0.0242448
-0.0245694
-0.0249008
-0.0252396
-0.0255842
-0.0259376
-0.0262965
-0.0266638
-0.027038
-0.0274188
-0.0278078
-0.0282031
-0.0286051
-0.0290161
-0.0294303
-0.0298553
-0.030283
-0.030717
-0.0311565
-0.0315943
-0.0320311
-0.0324569
-0.0328537
-0.0331964
-0.00549625
-0.00560591
-0.0053523
-0.00487791
-0.0043062
-0.00372423
-0.00324358
-0.00305682
-0.00325625
-0.00373607
-0.00434593
-0.00502635
-0.00577453
-0.00647459
-0.00700218
-0.00736154
-0.0076731
-0.00809613
-0.00851435
-0.00882904
-0.00932018
-0.0100534
-0.0106801
-0.0111519
-0.0117292
-0.0123127
-0.0127523
-0.013176
-0.0136051
-0.0139425
-0.0141118
-0.0142358
-0.0144335
-0.0145317
-0.0145457
-0.0145489
-0.0144821
-0.0146013
-0.0149204
-0.0150686
-0.0151473
-0.0153984
-0.0156869
-0.0159351
-0.0161729
-0.0163583
-0.01656
-0.0168467
-0.0170923
-0.0172647
-0.0175021
-0.0177724
-0.0179756
-0.0181937
-0.0184635
-0.0186885
-0.0188981
-0.0191569
-0.0193997
-0.0196003
-0.019837
-0.0201064
-0.0203463
-0.0205714
-0.0208223
-0.0210877
-0.0213425
-0.0215993
-0.0218671
-0.0221449
-0.0224254
-0.0227124
-0.0230065
-0.0233065
-0.0236132
-0.0239249
-0.0242441
-0.024569
-0.0249006
-0.0252396
-0.0255843
-0.0259377
-0.0262966
-0.0266639
-0.0270381
-0.0274189
-0.027808
-0.0282031
-0.0286053
-0.0290162
-0.0294305
-0.0298555
-0.0302834
-0.0307174
-0.0311573
-0.0315952
-0.0320329
-0.0324592
-0.0328574
-0.0332018
-0.00620957
-0.00605992
-0.00547467
-0.00475386
-0.00405583
-0.00345913
-0.00305874
-0.00300092
-0.00329437
-0.00380629
-0.00443489
-0.00515471
-0.00592852
-0.00659727
-0.00704588
-0.00735299
-0.00767777
-0.00811212
-0.00850711
-0.00881305
-0.00932612
-0.0100554
-0.0106532
-0.0111027
-0.0116273
-0.0121543
-0.0125787
-0.0130125
-0.0134627
-0.0138164
-0.0140039
-0.0141334
-0.0143312
-0.0144651
-0.0144966
-0.0145006
-0.0144734
-0.0146065
-0.0149045
-0.0150561
-0.0151396
-0.0153865
-0.0156759
-0.0159126
-0.0161422
-0.0163377
-0.0165417
-0.0168221
-0.0170727
-0.0172513
-0.017486
-0.0177569
-0.0179656
-0.0181836
-0.0184507
-0.0186767
-0.0188859
-0.0191423
-0.0193869
-0.0195911
-0.0198271
-0.0200951
-0.0203373
-0.0205656
-0.0208173
-0.0210828
-0.0213388
-0.021597
-0.0218656
-0.0221436
-0.0224242
-0.022711
-0.023005
-0.023305
-0.0236121
-0.0239242
-0.0242438
-0.0245688
-0.0249006
-0.0252396
-0.0255843
-0.0259378
-0.0262967
-0.026664
-0.0270383
-0.027419
-0.0278081
-0.0282032
-0.0286054
-0.0290163
-0.0294307
-0.0298557
-0.0302838
-0.0307179
-0.0311582
-0.0315963
-0.0320347
-0.0324617
-0.0328612
-0.0332073
-0.00666573
-0.00634997
-0.0055364
-0.00459098
-0.00372816
-0.00311303
-0.00285779
-0.00298182
-0.00338051
-0.00392651
-0.0045959
-0.00534938
-0.00608019
-0.00665433
-0.00701888
-0.00732989
-0.00772277
-0.0081546
-0.00850598
-0.00882402
-0.00935124
-0.0100316
-0.0105964
-0.0110492
-0.0114994
-0.0119584
-0.0124367
-0.0129217
-0.0133466
-0.0136733
-0.0138778
-0.0140183
-0.0142128
-0.0143865
-0.0144442
-0.0144491
-0.0144695
-0.0146245
-0.0148908
-0.0150375
-0.0151214
-0.0153564
-0.0156494
-0.0158823
-0.01611
-0.0163289
-0.0165393
-0.0168005
-0.017049
-0.017239
-0.0174735
-0.0177423
-0.0179542
-0.0181698
-0.0184323
-0.0186596
-0.0188698
-0.0191247
-0.0193721
-0.0195815
-0.0198183
-0.0200854
-0.02033
-0.020561
-0.020813
-0.0210781
-0.0213349
-0.021594
-0.0218628
-0.0221406
-0.0224214
-0.0227088
-0.0230035
-0.0233042
-0.0236117
-0.0239239
-0.0242435
-0.0245685
-0.0249004
-0.0252394
-0.0255843
-0.0259378
-0.0262969
-0.0266642
-0.0270384
-0.0274191
-0.0278082
-0.0282033
-0.0286056
-0.0290164
-0.029431
-0.0298559
-0.0302843
-0.0307184
-0.0311591
-0.0315976
-0.0320367
-0.0324644
-0.0328651
-0.0332129
-0.00684272
-0.00644284
-0.00549857
-0.00438749
-0.00340126
-0.00280544
-0.00272075
-0.0030327
-0.00354008
-0.00412992
-0.00482428
-0.00555355
-0.0061828
-0.00664935
-0.00697277
-0.00734455
-0.0078125
-0.00821186
-0.00850352
-0.00882624
-0.00934978
-0.00996972
-0.0105152
-0.0110041
-0.0114078
-0.011803
-0.0123222
-0.0128365
-0.0132108
-0.0134978
-0.013726
-0.0138919
-0.0140949
-0.0143224
-0.0144105
-0.0143981
-0.0144584
-0.0146401
-0.0148614
-0.0149961
-0.0150931
-0.0153244
-0.0156273
-0.0158598
-0.0160797
-0.016325
-0.0165496
-0.0167831
-0.0170189
-0.0172233
-0.0174601
-0.0177214
-0.0179333
-0.018149
-0.0184106
-0.0186414
-0.0188543
-0.0191088
-0.0193602
-0.0195751
-0.0198119
-0.0200765
-0.020322
-0.0205549