/*--------------------------------*- C++ -*----------------------------------*\
  =========                 |
  \\      /  F ield         | OpenFOAM: The Open Source CFD Toolbox
   \\    /   O peration     | Website:  https://openfoam.org
    \\  /    A nd           | Version:  6
     \\/     M anipulation  |
\*---------------------------------------------------------------------------*/
FoamFile
{
    version     2.0;
    format      ascii;
    class       surfaceScalarField;
    location    "0.4";
    object      phi;
}
// * * * * * * * * * * * * * * * * * * * * * * * * * * * * * * * * * * * * * //

dimensions      [0 3 -1 0 0 0 0];

internalField   nonuniform List<scalar> 
9440
(
3.88364e-06
1.52073e-08
3.87596e-06
1.33714e-08
3.87711e-06
-7.259e-08
3.8705e-06
-2.50838e-08
3.88108e-06
4.02005e-08
3.87791e-06
4.53283e-08
3.88259e-06
-9.41104e-09
3.87196e-06
-1.08816e-08
3.87735e-06
-3.14712e-08
3.8697e-06
-4.92823e-09
3.87785e-06
-6.12245e-09
3.87317e-06
1.94923e-08
3.88241e-06
3.5054e-09
3.88201e-06
1.01391e-08
3.90001e-06
-3.08681e-09
3.92029e-06
-1.89552e-11
3.96185e-06
-5.28094e-09
3.97999e-06
-1.65319e-08
3.97588e-06
-6.03645e-08
2.06144e-08
3.85612e-06
4.18507e-06
1.59982e-08
4.18676e-06
1.16814e-08
4.18062e-06
-6.64551e-08
4.18207e-06
-2.65323e-08
4.18448e-06
3.7796e-08
4.189e-06
4.08085e-08
4.18714e-06
-7.55563e-09
4.18343e-06
-7.16633e-09
4.18217e-06
-3.02192e-08
4.18129e-06
-4.0471e-09
4.18294e-06
-7.76653e-09
4.1841e-06
1.83319e-08
4.18572e-06
1.88399e-09
4.18884e-06
7.01371e-09
4.19455e-06
-8.7944e-09
4.20394e-06
-9.41093e-09
4.22469e-06
-2.60249e-08
4.25877e-06
-5.0618e-08
4.27096e-06
-7.25497e-08
1.40225e-07
4.15135e-06
4.51903e-06
1.70335e-08
4.52043e-06
1.02825e-08
4.51612e-06
-6.21482e-08
4.51542e-06
-2.58324e-08
4.51751e-06
3.57082e-08
4.52079e-06
3.75237e-08
4.52039e-06
-7.15836e-09
4.51591e-06
-2.67842e-09
4.51578e-06
-3.00926e-08
4.51403e-06
-2.29709e-09
4.51661e-06
-1.0342e-08
4.51647e-06
1.84648e-08
4.51956e-06
-1.20553e-09
4.52216e-06
4.41495e-09
4.53029e-06
-1.69266e-08
4.54226e-06
-2.13735e-08
4.56735e-06
-5.11239e-08
4.59263e-06
-7.58986e-08
4.50428e-06
1.58006e-08
1.69377e-07
4.47513e-06
4.8813e-06
1.66764e-08
4.88151e-06
1.00757e-08
4.87882e-06
-5.94518e-08
4.87718e-06
-2.41981e-08
4.87815e-06
3.47369e-08
4.88151e-06
3.41626e-08
4.88057e-06
-6.21424e-09
4.8779e-06
-1.37621e-11
4.87614e-06
-2.83284e-08
4.87577e-06
-1.9295e-09
4.87689e-06
-1.14567e-08
4.87816e-06
1.7194e-08
4.88086e-06
-3.90461e-09
4.88536e-06
-8.83591e-11
4.89422e-06
-2.57853e-08
4.90933e-06
-3.64837e-08
4.92851e-06
-7.03047e-08
4.90705e-06
-5.44419e-08
4.82167e-06
1.01184e-07
1.70308e-07
4.82074e-06
5.27148e-06
1.58454e-08
5.27141e-06
1.01387e-08
5.2687e-06
-5.67375e-08
5.26782e-06
-2.33145e-08
5.26752e-06
3.50298e-08
5.27185e-06
2.98366e-08
5.26926e-06
-3.62049e-09
5.26948e-06
-2.37155e-10
5.26502e-06
-2.38655e-08
5.26662e-06
-3.53051e-09
5.26579e-06
-1.0627e-08
5.2695e-06
1.34851e-08
5.27155e-06
-5.95877e-09
5.27861e-06
-7.14277e-09
5.28766e-06
-3.4841e-08
5.30137e-06
-5.01908e-08
5.29744e-06
-6.63724e-08
5.21432e-06
2.86713e-08
5.19292e-06
1.22587e-07
1.66856e-07
5.19637e-06
5.69238e-06
1.49267e-08
5.6923e-06
1.02136e-08
5.68916e-06
-5.35945e-08
5.68898e-06
-2.31307e-08
5.68843e-06
3.55794e-08
5.69282e-06
2.54484e-08
5.68934e-06
-1.47633e-10
5.69154e-06
-2.43252e-09
5.68547e-06
-1.77939e-08
5.68791e-06
-5.9791e-09
5.68619e-06
-8.90251e-09
5.6917e-06
7.97241e-09
5.69391e-06
-8.16688e-09
5.7025e-06
-1.57281e-08
5.71032e-06
-4.26641e-08
5.71454e-06
-5.44159e-08
5.66549e-06
-1.73157e-08
5.60216e-06
9.19953e-08
5.59111e-06
1.33638e-07
1.43448e-07
5.61452e-06
6.14678e-06
1.402e-08
6.14682e-06
1.0171e-08
6.14337e-06
-5.01417e-08
6.14307e-06
-2.28353e-08
6.14362e-06
3.50276e-08
6.1466e-06
2.24708e-08
6.14381e-06
2.64432e-09
6.1462e-06
-4.82427e-09
6.14038e-06
-1.19728e-08
6.14221e-06
-7.80984e-09
6.14092e-06
-7.61003e-09
6.14707e-06
1.82514e-09
6.15008e-06
-1.11838e-08
6.1582e-06
-2.38465e-08
6.16105e-06
-4.55169e-08
6.14258e-06
-3.59468e-08
6.08086e-06
4.44082e-08
6.03905e-06
1.33806e-07
6.01758e-06
1.55109e-07
5.79337e-08
6.10309e-06
6.63736e-06
1.32234e-08
6.63784e-06
9.68506e-09
6.63384e-06
-4.61344e-08
6.63312e-06
-2.21178e-08
6.63543e-06
3.27174e-08
6.63654e-06
2.13593e-08
6.63488e-06
4.30758e-09
6.63653e-06
-6.47662e-09
6.63189e-06
-7.3279e-09
6.63298e-06
-8.90774e-09
6.63205e-06
-6.68072e-09
6.63862e-06
-4.74603e-09
6.64143e-06
-1.39939e-08
6.64713e-06
-2.9538e-08
6.63835e-06
-3.67422e-08
6.59863e-06
3.77122e-09
6.5458e-06
9.7246e-08
6.51894e-06
1.6066e-07
6.48921e-06
1.8484e-07
-1.33499e-07
6.68064e-06
7.16698e-06
1.26781e-08
7.16829e-06
8.36622e-09
7.16334e-06
-4.11758e-08
7.16262e-06
-2.14044e-08
7.16596e-06
2.93819e-08
7.16611e-06
2.12065e-08
7.16496e-06
5.45388e-09
7.16606e-06
-7.57252e-09
7.16246e-06
-3.72915e-09
7.1634e-06
-9.85113e-09
7.16214e-06
-5.42069e-09
7.16895e-06
-1.15531e-08
7.1697e-06
-1.47397e-08
7.16984e-06
-2.96832e-08
7.14501e-06
-1.19118e-08
7.09918e-06
4.96021e-08
7.05867e-06
1.37757e-07
7.04043e-06
1.78899e-07
7.0422e-06
1.83074e-07
-2.9976e-07
7.20846e-06
7.73894e-06
1.23408e-08
7.74099e-06
6.31508e-09
7.73539e-06
-3.55688e-08
7.7346e-06
-2.06197e-08
7.7381e-06
2.58846e-08
7.73847e-06
2.08307e-08
7.73771e-06
6.21574e-09
7.73769e-06
-7.55226e-09
7.73543e-06
-1.47003e-09
7.73561e-06
-1.00255e-08
7.73496e-06
-4.77817e-09
7.73957e-06
-1.61592e-08
7.73765e-06
-1.28192e-08
7.72727e-06
-1.93071e-08
7.69211e-06
2.32515e-08
7.65034e-06
9.1368e-08
7.62394e-06
1.64162e-07
7.61783e-06
1.85011e-07
7.71957e-06
8.13343e-08
-3.64476e-07
7.78428e-06
8.35689e-06
1.19152e-08
8.35883e-06
4.36731e-09
8.35373e-06
-3.04657e-08
8.35221e-06
-1.91014e-08
8.35565e-06
2.24512e-08
8.35658e-06
1.9895e-08
8.35663e-06
6.16338e-09
8.35449e-06
-5.40511e-09
8.35428e-06
-1.26044e-09
8.35261e-06
-8.36275e-09
8.35374e-06
-5.89886e-09
8.35291e-06
-1.53338e-08
8.34785e-06
-7.76171e-09
8.32522e-06
3.32437e-09
8.28903e-06
5.94407e-08
8.25532e-06
1.25078e-07
8.24634e-06
1.73143e-07
8.26351e-06
1.67844e-07
8.45187e-06
-1.07024e-07
-3.42679e-07
8.43007e-06
9.0244e-06
1.11633e-08
9.0254e-06
3.37123e-09
9.02208e-06
-2.71457e-08
9.01924e-06
-1.62688e-08
9.0222e-06
1.94937e-08
9.0237e-06
1.83936e-08
9.02501e-06
4.85218e-09
9.02091e-06
-1.30364e-09
9.02205e-06
-2.40386e-09
9.01864e-06
-4.94923e-09
9.02018e-06
-7.43918e-09
9.01312e-06
-8.27068e-09
9.00324e-06
2.11799e-09
8.97249e-06
3.40716e-08
8.94111e-06
9.08258e-08
8.91812e-06
1.48067e-07
8.92412e-06
1.67138e-07
8.99688e-06
9.5086e-08
9.10821e-06
-2.18358e-07
-3.43045e-07
9.10858e-06
9.74517e-06
1.00984e-08
9.74511e-06
3.42787e-09
9.74381e-06
-2.58473e-08
9.73968e-06
-1.21363e-08
9.74172e-06
1.74509e-08
9.74419e-06
1.59263e-08
9.74632e-06
2.72168e-09
9.74126e-06
3.75408e-09
9.7419e-06
-3.04486e-09
9.73805e-06
-1.09347e-09
9.73698e-06
-6.37434e-09
9.72547e-06
3.23791e-09
9.70908e-06
1.85169e-08
9.67721e-06
6.59341e-08
9.65248e-06
1.15556e-07
9.64285e-06
1.577e-07
9.66407e-06
1.45919e-07
9.78058e-06
-2.14257e-08
9.79891e-06
-2.36687e-07
-3.5696e-07
9.81283e-06
1.05232e-05
8.93719e-09
1.05227e-05
3.95004e-09
1.05224e-05
-2.55135e-08
1.0518e-05
-7.77628e-09
1.05192e-05
1.63139e-08
1.05225e-05
1.26007e-08
1.05239e-05
1.31337e-09
1.05195e-05
8.11409e-09
1.05186e-05
-2.09586e-09
1.05152e-05
2.29966e-09
1.05088e-05
2.64537e-11
1.04944e-05
1.75962e-08
1.04723e-05
4.06732e-08
1.04449e-05
9.32931e-08
1.04276e-05
1.32884e-07
1.04306e-05
1.54684e-07
1.04756e-05
1.00889e-07
1.05621e-05
-1.07855e-07
1.0551e-05
-2.25576e-07
-3.69624e-07
1.05636e-05
1.13632e-05
7.89825e-09
1.13629e-05
4.2346e-09
1.13622e-05
-2.47791e-08
1.1359e-05
-4.61506e-09
1.13595e-05
1.58273e-08
1.13626e-05
9.48943e-09
1.13624e-05
1.50948e-09
1.13603e-05
1.02404e-08
1.13574e-05
7.71209e-10
1.13533e-05
6.44302e-09
1.13411e-05
1.22307e-08
1.13245e-05
3.41714e-08
1.13004e-05
6.47727e-08
1.12805e-05
1.13191e-07
1.12714e-05
1.42e-07
1.12859e-05
1.4017e-07
1.13468e-05
3.99999e-08
1.13775e-05
-1.38585e-07
1.13719e-05
-2.19985e-07
-3.83038e-07
1.13854e-05
1.22703e-05
6.95833e-09
1.22705e-05
4.01465e-09
1.22685e-05
-2.27571e-08
1.22673e-05
-3.41791e-09
1.22676e-05
1.55233e-08
1.22694e-05
7.62784e-09
1.22679e-05
3.0676e-09
1.22675e-05
1.05961e-08
1.22626e-05
5.66653e-09
1.22563e-05
1.27998e-08
1.22407e-05
2.78229e-08
1.22227e-05
5.21935e-08
1.2201e-05
8.64638e-08
1.21888e-05
1.25391e-07
1.2188e-05
1.42764e-07
1.22143e-05
1.13883e-07
1.22638e-05
-9.4837e-09
1.22637e-05
-1.38502e-07
1.22601e-05
-2.164e-07
-4.04308e-07
1.22814e-05
1.325e-05
5.88967e-09
1.32504e-05
3.65887e-09
1.3247e-05
-1.93998e-08
1.32477e-05
-4.10443e-09
1.32483e-05
1.49213e-08
1.32485e-05
7.41157e-09
1.32457e-05
5.8234e-09
1.32455e-05
1.08652e-08
1.32394e-05
1.17688e-08
1.32311e-05
2.11164e-08
1.32147e-05
4.42131e-08
1.3196e-05
7.08608e-08
1.3179e-05
1.03512e-07
1.31737e-05
1.306e-07
1.31819e-05
1.34609e-07
1.32152e-05
8.05406e-08
1.32395e-05
-3.37125e-08
1.32311e-05
-1.30173e-07
1.3225e-05
-2.10235e-07
-4.33965e-07
1.32546e-05
1.4308e-05
4.63978e-09
1.4308e-05
3.67514e-09
1.43041e-05
-1.55778e-08
1.43059e-05
-5.82614e-09
1.43067e-05
1.40861e-08
1.43056e-05
8.52928e-09
1.4302e-05
9.41734e-09
1.43009e-05
1.19974e-08
1.42943e-05
1.83334e-08
1.42845e-05
3.09216e-08
1.42681e-05
6.06514e-08
1.42504e-05
8.84724e-08
1.42393e-05
1.14605e-07
1.42416e-05
1.2831e-07
1.4259e-05
1.17198e-07
1.4288e-05
5.16121e-08
1.4293e-05
-3.87116e-08
1.42823e-05
-1.19512e-07
1.42746e-05
-2.02508e-07
-4.69824e-07
1.43104e-05
1.54501e-05
3.56901e-09
1.54498e-05
3.93159e-09
1.54467e-05
-1.24438e-08
1.5448e-05
-7.16096e-09
1.54488e-05
1.33475e-08
1.54472e-05
1.00712e-08
1.54437e-05
1.29282e-08
1.54409e-05
1.47687e-08
1.5433e-05
2.62355e-08
1.54218e-05
4.21035e-08
1.54068e-05
7.5647e-08
1.53938e-05
1.01543e-07
1.53901e-05
1.18321e-07
1.53996e-05
1.18766e-07
1.54207e-05
9.60623e-08
1.54371e-05
3.52753e-08
1.54312e-05
-3.28792e-08
1.54184e-05
-1.06678e-07
1.54118e-05
-1.959e-07
-5.11597e-07
1.54536e-05
1.66829e-05
3.13354e-09
1.66832e-05
3.60789e-09
1.66813e-05
-1.04964e-08
1.66809e-05
-6.83945e-09
1.66814e-05
1.28827e-08
1.66803e-05
1.12041e-08
1.66773e-05
1.59189e-08
1.66717e-05
2.0394e-08
1.66618e-05
3.61422e-08
1.66508e-05
5.30475e-08
1.66405e-05
8.59537e-08
1.66346e-05
1.07446e-07
1.66372e-05
1.15735e-07
1.665e-05
1.05965e-07
1.66667e-05
7.93157e-08
1.66715e-05
3.05176e-08
1.66615e-05
-2.28778e-08
1.66492e-05
-9.43748e-08
1.66471e-05
-1.93815e-07
-5.57765e-07
1.66933e-05
1.80143e-05
3.253e-09
1.80157e-05
2.2008e-09
1.80144e-05
-9.1742e-09
1.80121e-05
-4.53144e-09
1.80122e-05
1.27023e-08
1.80115e-05
1.1901e-08
1.80087e-05
1.87636e-08
1.80005e-05
2.86365e-08
1.79902e-05
4.64064e-08
1.79818e-05
6.14292e-08
1.79775e-05
9.02416e-08
1.79778e-05
1.07208e-07
1.79833e-05
1.10184e-07
1.79951e-05
9.4137e-08
1.80056e-05
6.88436e-08
1.80048e-05
3.13245e-08
1.7996e-05
-1.41037e-08
1.79871e-05
-8.54696e-08
1.79901e-05
-1.96774e-07
-6.02591e-07
1.80349e-05
1.94527e-05
3.22911e-09
1.94544e-05
5.11295e-10
1.94527e-05
-7.50304e-09
1.94494e-05
-1.22248e-09
1.94495e-05
1.26177e-08
1.94487e-05
1.26792e-08
1.94458e-05
2.17033e-08
1.94372e-05
3.72688e-08
1.94286e-05
5.49432e-08
1.94228e-05
6.72122e-08
1.94228e-05
9.02872e-08
1.94268e-05
1.03169e-07
1.9434e-05
1.03033e-07
1.94439e-05
8.41733e-08
1.94503e-05
6.24815e-08
1.94479e-05
3.37242e-08
1.94415e-05
-7.68338e-09
1.94373e-05
-8.13206e-08
1.94441e-05
-2.03579e-07
-6.41929e-07
1.94835e-05
2.10065e-05
2.57454e-09
2.1007e-05
-1.14657e-11
2.10048e-05
-5.36206e-09
2.10023e-05
1.27786e-09
2.10025e-05
1.24786e-08
2.10011e-05
1.41022e-08
2.09979e-05
2.4878e-08
2.09905e-05
4.46128e-08
2.09841e-05
6.14215e-08
2.098e-05
7.12204e-08
2.0983e-05
8.7384e-08
2.09899e-05
9.61739e-08
2.0999e-05
9.39823e-08
2.10066e-05
7.65984e-08
2.10093e-05
5.97671e-08
2.10064e-05
3.66357e-08
2.10029e-05
-4.16095e-09
2.10054e-05
-8.38224e-08
2.10157e-05
-2.1396e-07
-6.77739e-07
2.10515e-05
2.26839e-05
1.64138e-09
2.2683e-05
8.86937e-10
2.26812e-05
-3.63912e-09
2.26806e-05
1.96256e-09
2.26802e-05
1.27796e-08
2.26774e-05
1.69328e-08
2.26734e-05
2.88471e-08
2.26682e-05
4.98254e-08
2.26646e-05
6.50184e-08
2.26634e-05
7.24451e-08
2.2669e-05
8.17623e-08
2.2678e-05
8.72032e-08
2.2687e-05
8.49662e-08
2.26908e-05
7.28157e-08
2.26909e-05
5.96526e-08
2.26899e-05
3.76464e-08
2.26927e-05
-6.90364e-09
2.27022e-05
-9.33911e-08
2.27146e-05
-2.26337e-07
-7.105e-07
2.27474e-05
2.44945e-05
1.04925e-09
2.44935e-05
1.93712e-09
2.44926e-05
-2.78277e-09
2.44928e-05
1.8405e-09
2.44911e-05
1.44311e-08
2.44869e-05
2.11601e-08
2.4483e-05
3.2747e-08
2.44816e-05
5.11832e-08
2.44825e-05
6.41666e-08
2.44846e-05
7.03591e-08
2.4491e-05
7.5322e-08
2.44989e-05
7.93121e-08
2.45049e-05
7.89792e-08
2.45063e-05
7.14031e-08
2.45078e-05
5.81259e-08
2.45125e-05
3.29294e-08
2.45229e-05
-1.72643e-08
2.45354e-05
-1.05946e-07
2.45448e-05
-2.35706e-07
-7.36303e-07
2.45706e-05
2.64497e-05
8.63789e-10
2.64496e-05
2.10959e-09
2.64487e-05
-1.9298e-09
2.64478e-05
2.73224e-09
2.64453e-05
1.6935e-08
2.64419e-05
2.4569e-08
2.64405e-05
3.41641e-08
2.64436e-05
4.80825e-08
2.64476e-05
6.01833e-08
2.64507e-05
6.72312e-08
2.64552e-05
7.082e-08
2.64599e-05
7.46745e-08
2.64639e-05
7.49808e-08
2.64675e-05
6.77058e-08
2.64746e-05
5.11161e-08
2.64861e-05
2.1345e-08
2.65004e-05
-3.15503e-08
2.65112e-05
-1.16738e-07
2.65144e-05
-2.38895e-07
-7.54577e-07
2.65327e-05
2.85614e-05
7.53259e-10
2.85618e-05
1.77994e-09
2.85599e-05
-9.59329e-11
2.85579e-05
4.72943e-09
2.85569e-05
1.79723e-08
2.85565e-05
2.49917e-08
2.85579e-05
3.27246e-08
2.85627e-05
4.33273e-08
2.85663e-05
5.65174e-08
2.85691e-05
6.44334e-08
2.85722e-05
6.77639e-08
2.85765e-05
7.04002e-08
2.85833e-05
6.80884e-08
2.85924e-05
5.8611e-08
2.86048e-05
3.87558e-08
2.86195e-05
6.6517e-09
2.86328e-05
-4.48476e-08
2.864e-05
-1.23925e-07
2.86387e-05
-2.37628e-07
-7.68512e-07
2.86526e-05
3.08418e-05
6.07993e-10
3.08418e-05
1.82265e-09
3.08394e-05
2.27479e-09
3.0838e-05
6.17498e-09
3.08394e-05
1.65274e-08
3.08411e-05
2.33154e-08
3.08433e-05
3.04643e-08
3.08469e-05
3.97317e-08
3.08504e-05
5.30605e-08
3.08557e-05
5.9104e-08
3.08616e-05
6.18557e-08
3.08704e-05
6.16128e-08
3.08814e-05
5.7105e-08
3.08933e-05
4.6764e-08
3.09056e-05
2.63887e-08
3.09178e-05
-5.51059e-09
3.09275e-05
-5.46108e-08
3.09318e-05
-1.28162e-07
3.09295e-05
-2.35341e-07
-7.78493e-07
3.09395e-05
3.33041e-05
5.75122e-10
3.33036e-05
2.36771e-09
3.3302e-05
3.88941e-09
3.33018e-05
6.34443e-09
3.3304e-05
1.43666e-08
3.33059e-05
2.14139e-08
3.33083e-05
2.80494e-08
3.33122e-05
3.5863e-08
3.33196e-05
4.5565e-08
3.33305e-05
4.82829e-08
3.33416e-05
5.07705e-08
3.33539e-05
4.92314e-08
3.33641e-05
4.68925e-08
3.33734e-05
3.74775e-08
3.33811e-05
1.87204e-08
3.33891e-05
-1.35237e-08
3.33964e-05
-6.18624e-08
3.34004e-05
-1.32191e-07
3.33996e-05
-2.34587e-07
-7.85127e-07
3.34063e-05
3.5963e-05
6.94393e-10
3.59624e-05
2.94662e-09
3.5962e-05
4.36427e-09
3.59621e-05
6.21548e-09
3.59635e-05
1.29866e-08
3.5966e-05
1.88628e-08
3.59703e-05
2.37979e-08
3.59778e-05
2.83165e-08
3.59908e-05
3.26235e-08
3.60049e-05
3.41477e-08
3.60183e-05
3.73367e-08
3.60298e-05
3.77839e-08
3.60379e-05
3.87868e-08
3.60454e-05
2.99542e-08
3.60518e-05
1.23468e-08
3.60594e-05
-2.11436e-08
3.60663e-05
-6.87556e-08
3.60715e-05
-1.37402e-07
3.60723e-05
-2.35345e-07
-7.90292e-07
3.60774e-05
3.88343e-05
8.31337e-10
3.8834e-05
3.28395e-09
3.88339e-05
4.43223e-09
3.88338e-05
6.33161e-09
3.88353e-05
1.14423e-08
3.88399e-05
1.43336e-08
3.88467e-05
1.69304e-08
3.88578e-05
1.72558e-08
3.88718e-05
1.85778e-08
3.88856e-05
2.03665e-08
3.88996e-05
2.33203e-08
3.89126e-05
2.47818e-08
3.89264e-05
2.50202e-08
3.894e-05
1.6399e-08
3.89517e-05
5.72834e-10
3.89599e-05
-2.93297e-08
3.89629e-05
-7.17624e-08
3.89621e-05
-1.3654e-07
3.89569e-05
-2.3017e-07
-7.88862e-07
3.89555e-05
4.1935e-05
8.83718e-10
4.19348e-05
3.44739e-09
4.19347e-05
4.57829e-09
4.19352e-05
5.8193e-09
4.1938e-05
8.57507e-09
4.19439e-05
8.53199e-09
4.19517e-05
9.10865e-09
4.19627e-05
6.21851e-09
4.19746e-05
6.65001e-09
4.19894e-05
5.56869e-09
4.20077e-05
5.0175e-09
4.20302e-05
2.36099e-09
4.20558e-05
-6.08552e-10
4.20788e-05
-6.64461e-09
4.20945e-05
-1.51255e-08
4.20975e-05
-3.22783e-08
4.20882e-05
-6.25091e-08
4.20708e-05
-1.19159e-07
4.20514e-05
-2.10752e-07
-7.75698e-07
4.20383e-05
4.52832e-05
8.73302e-10
4.52832e-05
3.43801e-09
4.52833e-05
4.42362e-09
4.5285e-05
4.10433e-09
4.52885e-05
5.0947e-09
4.52938e-05
3.22141e-09
4.53009e-05
2.02411e-09
4.53102e-05
-3.10621e-09
4.53223e-05
-5.42766e-09
4.5341e-05
-1.3128e-08
4.53654e-05
-1.93391e-08
4.5396e-05
-2.82994e-08
4.54276e-05
-3.22081e-08
4.54547e-05
-3.37544e-08
4.54706e-05
-3.09872e-08
4.5471e-05
-3.26429e-08
4.54559e-05
-4.74425e-08
4.54298e-05
-9.3046e-08
4.54016e-05
-1.82599e-07
-7.53781e-07
4.53797e-05
4.88986e-05
8.46212e-10
4.8899e-05
3.05236e-09
4.88999e-05
3.56368e-09
4.89021e-05
1.90764e-09
4.89052e-05
2.00451e-09
4.89096e-05
-1.25775e-09
4.89161e-05
-4.40464e-09
4.89249e-05
-1.18949e-08
4.89386e-05
-1.91636e-08
4.89576e-05
-3.21081e-08
4.8981e-05
-4.27271e-08
4.9008e-05
-5.52961e-08
4.90361e-05
-6.0349e-08
4.90649e-05
-6.25824e-08
4.90915e-05
-5.75441e-08
4.91131e-05
-5.42571e-08
4.91231e-05
-5.73982e-08
4.91152e-05
-8.5159e-08
4.90882e-05
-1.55678e-07
-7.04232e-07
4.90387e-05
5.28028e-05
7.76187e-10
5.28036e-05
2.18621e-09
5.28051e-05
2.12426e-09
5.28071e-05
-8.38162e-11
5.28101e-05
-9.9934e-10
5.28143e-05
-5.51066e-09
5.28204e-05
-1.04766e-08
5.28284e-05
-1.98681e-08
5.28396e-05
-3.03992e-08
5.28517e-05
-4.41961e-08
5.28661e-05
-5.71607e-08
5.28829e-05
-7.20619e-08
5.29072e-05
-8.46483e-08
5.29427e-05
-9.80576e-08
5.29923e-05
-1.07201e-07
5.30517e-05
-1.13661e-07
5.31077e-05
-1.13351e-07
5.31377e-05
-1.15179e-07
5.31203e-05
-1.38305e-07
-5.80314e-07
5.29964e-05
5.70187e-05
6.0699e-10
5.70199e-05
9.41776e-10
5.70218e-05
2.69397e-10
5.70238e-05
-2.08772e-09
5.70272e-05
-4.35969e-09
5.70309e-05
-9.28187e-09
5.70356e-05
-1.51397e-08
5.70402e-05
-2.44878e-08
5.7045e-05
-3.51613e-08
5.70491e-05
-4.82952e-08
5.70557e-05
-6.37492e-08
5.70665e-05
-8.29305e-08
5.70879e-05
-1.06055e-07
5.71228e-05
-1.32934e-07
5.71762e-05
-1.60554e-07
5.72461e-05
-1.83637e-07
5.73273e-05
-1.94545e-07
5.74012e-05
-1.89048e-07
5.74364e-05
-1.73549e-07
-4.02738e-07
5.72589e-05
6.15713e-05
2.75868e-10
6.15727e-05
-5.15608e-10
6.15752e-05
-2.22713e-09
6.15773e-05
-4.18871e-09
6.15807e-05
-7.79049e-09
6.15831e-05
-1.16237e-08
6.15857e-05
-1.7791e-08
6.15862e-05
-2.49194e-08
6.15863e-05
-3.53082e-08
6.15858e-05
-4.7789e-08
6.15879e-05
-6.58858e-08
6.15925e-05
-8.74919e-08
6.16014e-05
-1.14907e-07
6.16138e-05
-1.45385e-07
6.16351e-05
-1.81881e-07
6.16737e-05
-2.22238e-07
6.17447e-05
-2.6554e-07
6.18546e-05
-2.98946e-07
6.19877e-05
-3.06619e-07
-3.66602e-07
6.19516e-05
6.64875e-05
-4.20281e-10
6.64888e-05
-1.80863e-09
6.64925e-05
-5.92955e-09
6.64938e-05
-5.50901e-09
6.64976e-05
-1.15535e-08
6.64981e-05
-1.2104e-08
6.65003e-05
-1.99945e-08
6.64981e-05
-2.27946e-08
6.64969e-05
-3.4077e-08
6.6491e-05
-4.19047e-08
6.64846e-05
-5.94193e-08
6.6473e-05
-7.59654e-08
6.64606e-05
-1.02495e-07
6.6446e-05
-1.30775e-07
6.6435e-05
-1.709e-07
6.64335e-05
-2.2068e-07
6.64607e-05
-2.92817e-07
6.65451e-05
-3.83304e-07
6.67147e-05
-4.76203e-07
-7.87158e-07
6.71352e-05
7.1796e-05
-1.27015e-09
7.17978e-05
-3.58746e-09
7.18017e-05
-9.88197e-09
7.18031e-05
-6.85201e-09
7.18065e-05
-1.4973e-08
7.1807e-05
-1.2549e-08
7.18085e-05
-2.15542e-08
7.18059e-05
-2.02118e-08
7.18022e-05
-3.03791e-08
7.17913e-05
-3.10082e-08
7.17745e-05
-4.25953e-08
7.17479e-05
-4.9355e-08
7.17155e-05
-7.00473e-08
7.16803e-05
-9.5642e-08
7.16497e-05
-1.40259e-07
7.16249e-05
-1.95895e-07
7.16027e-05
-2.70606e-07
7.15865e-05
-3.67084e-07
7.16305e-05
-5.20235e-07
-1.83016e-06
7.26735e-05
7.75278e-05
7.7531e-05
7.75341e-05
7.75367e-05
7.75393e-05
7.75409e-05
7.75407e-05
7.7538e-05
7.7531e-05
7.75195e-05
7.75013e-05
7.74731e-05
7.74275e-05
7.73578e-05
7.72648e-05
7.71749e-05
7.71531e-05
7.73016e-05
7.76965e-05
7.78981e-05
3.76497e-06
9.11512e-08
3.68177e-06
8.32035e-08
3.59203e-06
8.97352e-08
3.49839e-06
9.36474e-08
3.40191e-06
9.64798e-08
3.30242e-06
9.94915e-08
3.20069e-06
1.01727e-07
3.0979e-06
1.02794e-07
2.9931e-06
1.04792e-07
2.88535e-06
1.07756e-07
2.77659e-06
1.0876e-07
2.66699e-06
1.096e-07
2.55565e-06
1.11343e-07
2.4424e-06
1.13242e-07
2.32699e-06
1.15416e-07
2.21131e-06
1.15676e-07
2.09327e-06
1.18041e-07
1.97141e-06
1.21856e-07
1.85014e-06
1.21277e-07
1.72882e-06
1.21321e-07
1.60675e-06
1.22062e-07
1.48838e-06
1.18375e-07
1.37397e-06
1.14407e-07
1.26546e-06
1.08507e-07
1.16834e-06
9.7127e-08
1.08355e-06
8.4792e-08
1.01299e-06
7.05601e-08
9.58957e-07
5.40281e-08
9.21183e-07
3.77745e-08
8.97222e-07
2.39611e-08
8.79634e-07
1.75883e-08
8.64627e-07
1.50063e-08
8.53102e-07
1.15249e-08
8.43664e-07
9.43847e-09
8.37425e-07
6.23874e-09
8.33651e-07
3.77399e-09
8.27296e-07
6.35531e-09
8.19134e-07
8.16222e-09
8.11885e-07
7.249e-09
8.04197e-07
7.68806e-09
7.95921e-07
8.2761e-09
7.88024e-07
7.89647e-09
7.80189e-07
7.83515e-09
7.71632e-07
8.55735e-09
7.62426e-07
9.20551e-09
7.5408e-07
8.34629e-09
7.47092e-07
6.98787e-09
7.40314e-07
6.77811e-09
7.34061e-07
6.2527e-09
7.28962e-07
5.09927e-09
7.24477e-07
4.48492e-09
7.20513e-07
3.96354e-09
7.16899e-07
3.61425e-09
7.13209e-07
3.69018e-09
7.10094e-07
3.11491e-09
7.07834e-07
2.2601e-09
7.05564e-07
2.27014e-09
7.03688e-07
1.87598e-09
7.02875e-07
8.12481e-10
7.02294e-07
5.81202e-10
7.01154e-07
1.14038e-09
7.0034e-07
8.13239e-10
7.00278e-07
6.2057e-11
7.00388e-07
-1.10048e-10
7.00279e-07
1.09429e-10
7.0029e-07
-1.11411e-11
7.00534e-07
-2.44118e-10
7.00795e-07
-2.60866e-10
7.00994e-07
-1.98518e-10
7.01146e-07
-1.52344e-10
7.01335e-07
-1.88982e-10
7.0148e-07
-1.45352e-10
7.01632e-07
-1.51577e-10
7.01751e-07
-1.18723e-10
7.01875e-07
-1.24335e-10
7.01985e-07
-1.09725e-10
7.02077e-07
-9.27356e-11
7.02166e-07
-8.80563e-11
7.02229e-07
-6.30366e-11
7.02283e-07
-5.41461e-11
7.02325e-07
-4.25459e-11
7.02344e-07
-1.85272e-11
7.02374e-07
-3.03346e-11
7.02371e-07
2.77605e-12
7.02387e-07
-1.56015e-11
7.02383e-07
4.40399e-12
7.02379e-07
3.67417e-12
7.02376e-07
2.53964e-12
7.02364e-07
1.28173e-11
7.0234e-07
2.33502e-11
7.02332e-07
8.59731e-12
7.02265e-07
6.63429e-11
7.02229e-07
3.59969e-11
7.02119e-07
1.10606e-10
7.01954e-07
1.64403e-10
7.01733e-07
2.21275e-10
7.01228e-07
5.04459e-10
7.00648e-07
5.80656e-10
6.98744e-07
1.90363e-09
5.23474e-09
4.15811e-06
8.43933e-08
4.17306e-06
6.8249e-08
4.17803e-06
8.47688e-08
4.1752e-06
9.64715e-08
4.16666e-06
1.05027e-07
4.15333e-06
1.12823e-07
4.13683e-06
1.18225e-07
4.11872e-06
1.20901e-07
4.09826e-06
1.25252e-07
4.07466e-06
1.31357e-07
4.04882e-06
1.34595e-07
4.02102e-06
1.37402e-07
3.98893e-06
1.4343e-07
3.95248e-06
1.49697e-07
3.91218e-06
1.55718e-07
3.86821e-06
1.59643e-07
3.8205e-06
1.65747e-07
3.76654e-06
1.75824e-07
3.71067e-06
1.77148e-07
3.65147e-06
1.80518e-07
3.58524e-06
1.88287e-07
3.51837e-06
1.85254e-07
3.4489e-06
1.83869e-07
3.37637e-06
1.81038e-07
3.30475e-06
1.68747e-07
3.23483e-06
1.54719e-07
3.16742e-06
1.37969e-07
3.10265e-06
1.18791e-07
3.04649e-06
9.3939e-08
2.99705e-06
7.34008e-08
2.94909e-06
6.55441e-08
2.90632e-06
5.77809e-08
2.86403e-06
5.3819e-08
2.82187e-06
5.15912e-08
2.78615e-06
4.19564e-08
2.74978e-06
4.01519e-08
2.71037e-06
4.57611e-08
2.67357e-06
4.4963e-08
2.63745e-06
4.33723e-08
2.60177e-06
4.33654e-08
2.56886e-06
4.11868e-08
2.53689e-06
3.98648e-08
2.50541e-06
3.93132e-08
2.47431e-06
3.9661e-08
2.44267e-06
4.08455e-08
2.41262e-06
3.83932e-08
2.38533e-06
3.42821e-08
2.35895e-06
3.31565e-08
2.33382e-06
3.13846e-08
2.31145e-06
2.74643e-08
2.29127e-06
2.4668e-08
2.27236e-06
2.2868e-08
2.25499e-06
2.09908e-08
2.2395e-06
1.91825e-08
2.22574e-06
1.68674e-08
2.21327e-06
1.47292e-08
2.20211e-06
1.34302e-08
2.19302e-06
1.09746e-08
2.18581e-06
8.01415e-09
2.17944e-06
6.95582e-09
2.17361e-06
6.9698e-09
2.16908e-06
5.33865e-09
2.16587e-06
3.27838e-09
2.1634e-06
2.35354e-09
2.16148e-06
2.03909e-09
2.16031e-06
1.15168e-09
2.1598e-06
2.67865e-10
2.15965e-06
-1.09122e-10
2.15967e-06
-2.17501e-10
2.15982e-06
-3.04189e-10
2.16007e-06
-4.41328e-10
2.16037e-06
-4.42129e-10
2.16071e-06
-4.9035e-10
2.16108e-06
-4.91848e-10
2.16148e-06
-5.28678e-10
2.16191e-06
-5.3532e-10
2.16232e-06
-5.00357e-10
2.16271e-06
-4.82697e-10
2.16304e-06
-3.90507e-10
2.16333e-06
-3.40111e-10
2.16353e-06
-2.49891e-10
2.16369e-06
-1.78577e-10
2.1638e-06
-1.36184e-10
2.16387e-06
-6.69832e-11
2.16391e-06
-5.56049e-11
2.16394e-06
-2.39948e-11
2.16393e-06
6.9312e-12
2.16395e-06
-1.57339e-11
2.16392e-06
4.73938e-11
2.16393e-06
1.36416e-11
2.16386e-06
7.22761e-11
2.16385e-06
7.69715e-11
2.16372e-06
1.66518e-10
2.16368e-06
1.49403e-10
2.16337e-06
4.82246e-10
2.16325e-06
3.36999e-10
2.16247e-06
1.2859e-09
2.16189e-06
1.15471e-09
2.16007e-06
3.72905e-09
1.06605e-08
4.49021e-06
6.9311e-08
4.50836e-06
5.01076e-08
4.52078e-06
7.23436e-08
4.52694e-06
9.03149e-08
4.52828e-06
1.03684e-07
4.52684e-06
1.1426e-07
4.52462e-06
1.20444e-07
4.52284e-06
1.22682e-07
4.52142e-06
1.26679e-07
4.51993e-06
1.3284e-07
4.51837e-06
1.36162e-07
4.51701e-06
1.38761e-07
4.51415e-06
1.46288e-07
4.50891e-06
1.54935e-07
4.50258e-06
1.62046e-07
4.49456e-06
1.67664e-07
4.4851e-06
1.7521e-07
4.4732e-06
1.87723e-07
4.4609e-06
1.89451e-07
4.4479e-06
1.93518e-07
4.43027e-06
2.05914e-07
4.4124e-06
2.03123e-07
4.39337e-06
2.02905e-07
4.3708e-06
2.03602e-07
4.34729e-06
1.92259e-07
4.32231e-06
1.797e-07
4.29635e-06
1.63928e-07
4.26861e-06
1.46534e-07
4.24192e-06
1.2062e-07
4.21792e-06
9.7401e-08
4.1927e-06
9.07653e-08
4.1692e-06
8.12808e-08
4.14629e-06
7.67271e-08
4.12122e-06
7.66609e-08
4.09902e-06
6.41561e-08
4.07662e-06
6.25552e-08
4.05109e-06
7.12919e-08
4.0273e-06
6.87568e-08
4.00368e-06
6.69935e-08
3.97841e-06
6.86272e-08
3.95383e-06
6.57702e-08
3.92896e-06
6.47317e-08
3.90326e-06
6.5017e-08
3.877e-06
6.5926e-08
3.8496e-06
6.82419e-08
3.82279e-06
6.51987e-08
3.79769e-06
5.93839e-08
3.77327e-06
5.75759e-08
3.74976e-06
5.48943e-08
3.72759e-06
4.96358e-08
3.70619e-06
4.60685e-08
3.68518e-06
4.38752e-08
3.66452e-06
4.16503e-08
3.64475e-06
3.89567e-08
3.62644e-06
3.51812e-08
3.60906e-06
3.20999e-08
3.59246e-06
3.00352e-08
3.57762e-06
2.58158e-08
3.5646e-06
2.10287e-08
3.55244e-06
1.91201e-08
3.54107e-06
1.83389e-08
3.53124e-06
1.51721e-08
3.52286e-06
1.16579e-08
3.51546e-06
9.75566e-09
3.50896e-06
8.53252e-09
3.50361e-06
6.50331e-09
3.49926e-06
4.61947e-09
3.49571e-06
3.43766e-09
3.49281e-06
2.68482e-09
3.49056e-06
1.9477e-09
3.48885e-06
1.26703e-09
3.48764e-06
7.70537e-10
3.48682e-06
3.23035e-10
3.48639e-06
-6.02729e-11
3.48629e-06
-4.29773e-10
3.48651e-06
-7.5717e-10
3.487e-06
-9.83256e-10
3.48769e-06
-1.17381e-09
3.48847e-06
-1.17373e-09
3.48929e-06
-1.15324e-09
3.49001e-06
-9.72678e-10
3.49064e-06
-8.09801e-10
3.49111e-06
-6.0373e-10
3.49147e-06
-4.26929e-10
3.49169e-06
-2.80962e-10
3.49185e-06
-1.84161e-10
3.49193e-06
-6.64474e-11
3.49199e-06
-8.21964e-11
3.49198e-06
6.03413e-11
3.49202e-06
-2.44366e-11
3.49195e-06
1.41066e-10
3.49196e-06
6.13012e-11
3.49184e-06
2.86337e-10
3.49181e-06
1.86535e-10
3.49157e-06
7.17793e-10
3.49142e-06
4.88674e-10
3.49091e-06
1.79568e-09
3.49019e-06
1.87302e-09
3.48917e-06
4.75189e-09
1.42226e-08
4.8516e-06
3.84552e-08
4.86863e-06
3.30769e-08
4.88213e-06
5.88391e-08
4.88974e-06
8.27017e-08
4.89177e-06
1.01655e-07
4.89089e-06
1.15145e-07
4.88958e-06
1.21752e-07
4.88869e-06
1.23574e-07
4.88905e-06
1.2632e-07
4.89051e-06
1.31373e-07
4.89242e-06
1.34254e-07
4.895e-06
1.36185e-07
4.89722e-06
1.44068e-07
4.89812e-06
1.54035e-07
4.89895e-06
1.61215e-07
4.89927e-06
1.67339e-07
4.89907e-06
1.75411e-07
4.89886e-06
1.87932e-07
4.89924e-06
1.8907e-07
4.90014e-06
1.92624e-07
4.89929e-06
2.06761e-07
4.89877e-06
2.03645e-07
4.89874e-06
2.02934e-07
4.89682e-06
2.05524e-07
4.89421e-06
1.94869e-07
4.89036e-06
1.83543e-07
4.88516e-06
1.69136e-07
4.87818e-06
1.53512e-07
4.86974e-06
1.29054e-07
4.86199e-06
1.05151e-07
4.85345e-06
9.93063e-08
4.84505e-06
8.96804e-08
4.83746e-06
8.43181e-08
4.82829e-06
8.58298e-08
4.81963e-06
7.28225e-08
4.81131e-06
7.08678e-08
4.80163e-06
8.09797e-08
4.79312e-06
7.72597e-08
4.78495e-06
7.51649e-08
4.77535e-06
7.82324e-08
4.76593e-06
7.51853e-08
4.75633e-06
7.43385e-08
4.74566e-06
7.56791e-08
4.73418e-06
7.74096e-08
4.72141e-06
8.10097e-08
4.70816e-06
7.84495e-08
4.69545e-06
7.20994e-08
4.68286e-06
7.016e-08
4.67058e-06
6.7175e-08
4.65916e-06
6.10567e-08
4.64839e-06
5.68361e-08
4.63789e-06
5.43781e-08
4.62722e-06
5.2318e-08
4.61629e-06
4.98901e-08
4.6054e-06
4.60727e-08
4.59451e-06
4.29873e-08
4.58369e-06
4.08596e-08
4.57358e-06
3.59193e-08
4.56431e-06
3.02979e-08
4.55534e-06
2.80902e-08
4.54666e-06
2.70223e-08
4.53875e-06
2.30828e-08
4.53162e-06
1.87908e-08
4.52504e-06
1.63295e-08
4.51901e-06
1.45609e-08
4.51369e-06
1.18252e-08
4.50899e-06
9.32377e-09
4.50483e-06
7.59013e-09
4.50116e-06
6.36015e-09
4.498e-06
5.10277e-09
4.49531e-06
3.96338e-09
4.49307e-06
3.01007e-09
4.49125e-06
2.14494e-09
4.48984e-06
1.34279e-09
4.48884e-06
5.70438e-10
4.48822e-06
-1.36877e-10
4.48796e-06
-7.23095e-10
4.48803e-06
-1.24061e-09
4.48838e-06
-1.52158e-09
4.48896e-06
-1.73858e-09
4.48968e-06
-1.69259e-09
4.49048e-06
-1.60405e-09
4.49123e-06
-1.35403e-09
4.49189e-06
-1.091e-09
4.49242e-06
-8.08567e-10
4.49281e-06
-5.71083e-10
4.49307e-06
-3.30202e-10
4.49324e-06
-2.50812e-10
4.49332e-06
-2.20707e-11
4.49338e-06
-8.21069e-11
4.49337e-06
1.47776e-10
4.49336e-06
6.91094e-11
4.49332e-06
3.28256e-10
4.49324e-06
2.69411e-10
4.49314e-06
8.14166e-10
4.49293e-06
7.02358e-10
4.49272e-06
2.00297e-09
4.49198e-06
2.6105e-09
4.49159e-06
5.14766e-09
1.59842e-08
5.24395e-06
-9.11976e-09
5.25941e-06
1.76123e-08
5.27262e-06
4.56266e-08
5.28068e-06
7.46414e-08
5.28312e-06
9.92195e-08
5.28244e-06
1.15821e-07
5.28112e-06
1.23078e-07
5.27982e-06
1.24873e-07
5.28005e-06
1.26084e-07
5.28209e-06
1.2934e-07
5.28459e-06
1.31752e-07
5.28736e-06
1.33417e-07
5.28997e-06
1.41458e-07
5.29197e-06
1.52033e-07
5.29396e-06
1.59219e-07
5.29532e-06
1.65983e-07
5.29653e-06
1.74196e-07
5.29877e-06
1.85701e-07
5.30136e-06
1.86478e-07
5.30449e-06
1.89492e-07
5.30754e-06
2.03712e-07
5.31075e-06
2.00432e-07
5.31469e-06
1.98996e-07
5.31794e-06
2.0228e-07
5.32062e-06
1.92187e-07
5.32228e-06
1.81878e-07