/*--------------------------------*- C++ -*----------------------------------*\
  =========                 |
  \\      /  F ield         | OpenFOAM: The Open Source CFD Toolbox
   \\    /   O peration     | Website:  https://openfoam.org
    \\  /    A nd           | Version:  6
     \\/     M anipulation  |
\*---------------------------------------------------------------------------*/
FoamFile
{
    version     2.0;
    format      ascii;
    class       volVectorField;
    location    "0.4";
    object      U;
}
// * * * * * * * * * * * * * * * * * * * * * * * * * * * * * * * * * * * * * //

dimensions      [0 1 -1 0 0 0 0];

internalField   nonuniform List<vector> 
4800
(
(0.96024 0.000190434 0)
(1.04004 0.000127122 0)
(0.963407 -0.000845122 0)
(1.03338 -0.000431278 0)
(0.966717 0.000803363 0)
(1.0327 0.000603993 0)
(0.970931 -4.97151e-05 0)
(1.02827 -0.000433556 0)
(0.973114 -0.000332698 0)
(1.02439 -0.000263847 0)
(0.974976 -6.2199e-05 0)
(1.0217 0.000213924 0)
(0.979156 0.000267932 0)
(1.02018 0.000317001 0)
(0.982691 0.000233206 0)
(1.01866 1.27517e-05 0)
(0.986073 5.56172e-06 0)
(1.01693 -0.000257503 0)
(0.988585 -0.000170616 0)
(1.01517 -0.000341688 0)
(0.982544 0.000157292 0)
(1.01559 0.000110229 0)
(0.986419 -0.00078125 0)
(1.00971 -0.00036657 0)
(0.989387 0.000575072 0)
(1.00925 0.000624756 0)
(0.993107 -0.000118236 0)
(1.00591 -0.000253133 0)
(0.994457 -0.000506096 0)
(1.00347 -0.000105179 0)
(0.9952 -0.000133372 0)
(1.00223 0.00036573 0)
(0.99785 6.22442e-05 0)
(1.00216 0.000271906 0)
(0.999786 -0.000102538 0)
(1.00243 -1.57885e-05 0)
(1.00137 -9.95264e-05 0)
(1.00271 -8.26293e-05 0)
(1.00216 -2.66209e-05 0)
(1.00253 -4.98213e-05 0)
(0.995766 0.000161472 0)
(1.00336 0.000129475 0)
(0.997415 -0.000786979 0)
(1.00037 -0.000284706 0)
(0.997638 0.000341933 0)
(1.00132 0.000781223 0)
(0.999112 -0.000238613 0)
(1.0001 3.86382e-05 0)
(0.998905 -0.000851187 0)
(0.99936 0.000111412 0)
(0.998389 -0.000286358 0)
(0.99923 0.000659643 0)
(0.99969 -0.000167587 0)
(1.00015 0.000243783 0)
(1.00065 -0.000528423 0)
(1.0012 9.67083e-06 0)
(1.00164 -0.000302079 0)
(1.00205 0.000237103 0)
(1.00211 -1.48231e-06 0)
(1.00219 0.000362391 0)
(0.999252 0.000177459 0)
(1.00075 0.000108777 0)
(0.999873 -0.000792256 0)
(0.999071 -0.000183185 0)
(0.999112 0.000290754 0)
(1.00017 0.000731756 0)
(0.999808 -0.000241874 0)
(0.999518 0.000194426 0)
(0.999422 -0.000945898 0)
(0.999158 0.000130546 0)
(0.998764 -0.000267642 0)
(0.999042 0.000788004 0)
(0.999749 -0.000191324 0)
(1.0001 7.97588e-05 0)
(1.00063 -0.000707707 0)
(1.00118 -0.000182895 0)
(1.00164 -0.000338838 0)
(1.002 0.00025688 0)
(1.00211 0.000106566 0)
(1.00227 0.000621981 0)
(0.999792 0.000158039 0)
(1.00043 0.000102496 0)
(1.00019 -0.000718335 0)
(0.999064 -0.000188579 0)
(0.999343 0.000351363 0)
(1.00009 0.000528234 0)
(0.999852 -3.11091e-05 0)
(0.999499 0.000118789 0)
(0.999525 -0.000688879 0)
(0.99925 -0.000108385 0)
(0.998886 -0.000132345 0)
(0.99907 0.000588292 0)
(0.999726 -9.76002e-06 0)
(1.00017 -0.000128697 0)
(1.00067 -0.000638256 0)
(1.00128 -0.000422762 0)
(1.00174 -0.000266495 0)
(1.00206 1.45816e-05 0)
(1.00221 0.000190513 0)
(1.00237 0.000577656 0)
(0.999853 0.000159285 0)
(1.0004 8.96231e-05 0)
(1.00019 -0.000646539 0)
(0.999114 -0.000336183 0)
(0.999401 0.000638061 0)
(1.00009 0.000239364 0)
(0.999837 0.000149938 0)
(0.999482 -9.76075e-05 0)
(0.999542 -0.000234893 0)
(0.999303 -0.000411104 0)
(0.998942 -2.8768e-05 0)
(0.999095 0.000238801 0)
(0.999679 0.000182827 0)
(1.00016 -0.000256337 0)
(1.00069 -0.000452959 0)
(1.00134 -0.000607419 0)
(1.00182 -0.000275748 0)
(1.00211 -0.000292651 0)
(1.0023 4.87169e-05 0)
(1.00241 0.00027826 0)
(0.999861 0.000167608 0)
(1.00038 7.48685e-05 0)
(1.00017 -0.000595237 0)
(0.999176 -0.000370452 0)
(0.999413 0.00077145 0)
(1.00008 1.09078e-05 0)
(0.999825 0.000193493 0)
(0.999475 -0.000144736 0)
(0.999524 -1.3042e-05 0)
(0.999314 -0.000418034 0)
(0.998981 -0.00014612 0)
(0.999118 1.43055e-05 0)
(0.999643 8.14449e-05 0)
(1.00012 -0.000156233 0)
(1.00066 -0.000395803 0)
(1.00136 -0.000611056 0)
(1.00186 -0.000454417 0)
(1.00215 -0.000420361 0)
(1.00238 -0.000204476 0)
(1.00243 6.46121e-05 0)
(0.999862 0.000105669 0)
(1.00036 0.000219959 0)
(1.00015 -0.00065753 0)
(0.99923 -0.000309191 0)
(0.999421 0.000557327 0)
(1.00006 0.00028019 0)
(0.999814 -1.16772e-05 0)
(0.999461 -9.4137e-05 0)
(0.999506 -0.000104055 0)
(0.999299 -6.83356e-05 0)
(0.999003 -0.000408109 0)
(0.999142 -1.16191e-05 0)
(0.999643 -0.000160169 0)
(1.00009 4.10657e-05 0)
(1.00061 -0.00045714 0)
(1.00135 -0.000463316 0)
(1.00188 -0.000702166 0)
(1.00219 -0.000349879 0)
(1.00244 -0.00038007 0)
(1.00249 8.31735e-05 0)
(0.999865 0.000101152 0)
(1.00032 0.000245397 0)
(1.00012 -0.000711779 0)
(0.999288 -0.000266793 0)
(0.999462 0.000484223 0)
(1.00002 0.000469894 0)
(0.999773 -0.000205936 0)
(0.999465 -0.000123375 0)
(0.999523 2.71798e-05 0)
(0.999274 6.81897e-06 0)
(0.999 -0.00030579 0)
(0.999164 -0.000121024 0)
(0.999658 -0.000120757 0)
(1.00006 -0.000175053 0)
(1.00056 -0.000352023 0)
(1.00131 -0.000551627 0)
(1.0019 -0.000659226 0)
(1.00225 -0.000390763 0)
(1.00252 -0.00017322 0)
(1.00261 9.29182e-05 0)
(0.999867 0.000154769 0)
(1.00029 4.93937e-05 0)
(1.0001 -0.00047958 0)
(0.999353 -0.000296863 0)
(0.99949 0.00041017 0)
(0.999972 0.000355857 0)
(0.999747 7.70102e-05 0)
(0.999493 -0.000180954 0)
(0.999526 6.72578e-05 0)
(0.999252 -0.000248394 0)
(0.998992 0.000141263 0)
(0.999169 -0.000273216 0)
(0.999639 5.85669e-06 0)
(1.00003 -0.000554074 0)
(1.00053 -0.000144609 0)
(1.00128 -0.000751608 0)
(1.00195 -0.000396158 0)
(1.00234 -0.000502999 0)
(1.00262 0.000237142 0)
(1.00261 5.82916e-05 0)
(0.999867 0.000141339 0)
(1.00028 -1.61051e-05 0)
(1.00009 -0.000217937 0)
(0.999391 -0.000382935 0)
(0.999515 0.000256839 0)
(0.999987 0.000471541 0)
(0.99971 0.000322582 0)
(0.999464 -0.000343189 0)
(0.99951 -0.000184441 0)
(0.999296 -0.00012585 0)
(0.998987 0.000359288 0)
(0.999138 -0.000255022 0)
(0.999591 -5.7163e-05 0)
(1.00003 -0.000481755 0)
(1.00051 -0.000204381 0)
(1.00125 -0.000741828 0)
(1.00199 -0.000378811 0)
(1.00247 -0.000366317 0)
(1.00272 0.00036379 0)
(1.00254 0.000342012 0)
(0.999869 0.000112399 0)
(1.00028 3.67305e-05 0)
(1.00006 -0.000132548 0)
(0.999417 -0.000371571 0)
(0.999563 0.000234226 0)
(1.00001 0.000460834 0)
(0.999618 0.000163758 0)
(0.999424 -0.000288932 0)
(0.999549 -0.000115627 0)
(0.999354 9.52327e-05 0)
(0.998941 3.65108e-05 0)
(0.999096 -0.000134325 0)
(0.999564 -3.45132e-05 0)
(1.00001 -0.000117086 0)
(1.00044 -0.000382974 0)
(1.00125 -0.000476348 0)
(1.00206 -0.000362638 0)
(1.00263 5.98165e-05 0)
(1.00287 0.000332404 0)
(1.00269 0.000809756 0)
(0.999873 8.06585e-05 0)
(1.00027 0.000108767 0)
(1.00003 -0.000198065 0)
(0.999441 -0.000233097 0)
(0.999597 0.000137549 0)
(1.00001 0.00023459 0)
(0.999569 6.54669e-05 0)
(0.999431 0.000172125 0)
(0.999557 -3.57575e-05 0)
(0.999321 -9.94077e-05 0)
(0.99892 -0.000301171 0)
(0.999138 0.000238606 0)
(0.999571 0.000181407 0)
(0.999942 0.000199174 0)
(1.00038 -0.000260903 0)
(1.00129 4.54682e-06 0)
(1.00216 -7.51298e-05 0)
(1.00275 0.000397512 0)
(1.00301 0.00041532 0)
(1.00309 0.00126742 0)
(0.999882 7.98574e-05 0)
(1.00025 0.000108096 0)
(1.00001 -0.000343119 0)
(0.999465 -0.000128548 0)
(0.999617 0.000103606 0)
(1.00001 0.00014386 0)
(0.999592 0.000119722 0)
(0.999415 0.000394401 0)
(0.999483 -0.000134355 0)
(0.999309 -0.000131026 0)
(0.999014 -4.90208e-05 0)
(0.999219 0.000479337 0)
(0.99954 0.00018919 0)
(0.999886 0.000353474 0)
(1.00038 0.000208909 0)
(1.00133 0.000519022 0)
(1.00221 0.000327907 0)
(1.00284 0.000554978 0)
(1.00327 0.000882382 0)
(1.00376 0.00208036 0)
(0.999897 0.000107891 0)
(1.00021 2.77884e-06 0)
(1.00001 -0.000441711 0)
(0.999514 6.63098e-06 0)
(0.99964 0.000275807 0)
(1 9.38841e-05 0)
(0.999623 2.24399e-05 0)
(0.999396 0.000310838 0)
(0.999456 8.15184e-05 0)
(0.999367 0.000217456 0)
(0.999065 0.000151335 0)
(0.999203 0.000117795 0)
(0.999539 0.000102049 0)
(0.999966 0.000700383 0)
(1.00046 0.000929673 0)
(1.00134 0.00105455 0)
(1.00219 0.000833425 0)
(1.00301 0.00104626 0)
(1.00377 0.0018636 0)
(1.0046 0.00322649 0)
(0.999914 0.000107516 0)
(1.00017 -8.22954e-05 0)
(1.00004 -0.000360921 0)
(0.999587 0.000162157 0)
(0.999641 0.000370359 0)
(0.999962 -2.64239e-05 0)
(0.999668 -9.67205e-05 0)
(0.999442 0.000291396 0)
(0.999477 0.000379409 0)
(0.999341 0.000280412 0)
(0.998985 -2.00751e-06 0)
(0.999222 -1.79318e-05 0)
(0.999746 0.000581234 0)
(1.00018 0.00130862 0)
(1.00052 0.00153308 0)
(1.00129 0.00144847 0)
(1.00222 0.00146565 0)
(1.00334 0.00204501 0)
(1.00442 0.00309098 0)
(1.00535 0.00427324 0)
(0.999929 6.61312e-05 0)
(1.00015 -3.50108e-05 0)
(1.00007 -0.000178472 0)
(0.999637 0.000132888 0)
(0.999618 0.000249549 0)
(0.999918 -6.12607e-05 0)
(0.999724 -5.03552e-05 0)
(0.999497 0.000259743 0)
(0.999462 0.00031452 0)
(0.999265 0.000172929 0)
(0.998996 0.000293816 0)
(0.999404 0.000678679 0)
(1.00001 0.00121564 0)
(1.00031 0.0014981 0)
(1.00052 0.00164377 0)
(1.00131 0.00180926 0)
(1.0025 0.00241559 0)
(1.00384 0.00338501 0)
(1.00502 0.00429151 0)
(1.00587 0.00500695 0)
(0.999942 2.51659e-05 0)
(1.00013 8.62578e-05 0)
(1.00008 -9.38576e-05 0)
(0.999648 -0.00010666 0)
(0.999613 9.23802e-05 0)
(0.999899 7.82275e-05 0)
(0.99975 0.000131089 0)
(0.999506 0.000153549 0)
(0.999474 0.000176546 0)
(0.999329 0.000415386 0)
(0.999172 0.00101571 0)
(0.999525 0.00131109 0)
(1.00005 0.00127532 0)
(1.00034 0.00130968 0)
(1.00068 0.00184067 0)
(1.00167 0.00266333 0)
(1.00306 0.00362825 0)
(1.00436 0.00448582 0)
(1.00539 0.00496485 0)
(1.00607 0.00513825 0)
(0.999954 1.90881e-05 0)
(1.00011 0.00014334 0)
(1.00005 -0.00017135 0)
(0.99965 -0.000318625 0)
(0.999669 0.000117672 0)
(0.999912 0.000336249 0)
(0.999737 0.000322982 0)
(0.999497 8.21565e-05 0)
(0.999571 0.000214055 0)
(0.999512 0.000696245 0)
(0.999326 0.00132525 0)
(0.99947 0.00137913 0)
(1.00004 0.00128355 0)
(1.00056 0.00159346 0)
(1.0012 0.00258336 0)
(1.00223 0.00357883 0)
(1.00352 0.00429124 0)
(1.00462 0.00465328 0)
(1.00544 0.00483775 0)
(1.00602 0.00479068 0)
(0.999965 4.11791e-05 0)
(1.00007 7.52177e-05 0)
(1.00001 -0.000263406 0)
(0.999692 -0.000251574 0)
(0.999778 0.000320691 0)
(0.999924 0.000460627 0)
(0.999695 0.000303972 0)
(0.999483 4.10174e-05 0)
(0.999687 0.000280671 0)
(0.999688 0.000695325 0)
(0.999443 0.00128033 0)
(0.999489 0.00154456 0)
(1.00019 0.00182498 0)
(1.00095 0.00234562 0)
(1.00172 0.00323541 0)
(1.00259 0.00381431 0)
(1.00371 0.00424626 0)
(1.00471 0.00436051 0)
(1.00549 0.00457998 0)
(1.00597 0.00455386 0)
(0.99997 5.17046e-05 0)
(1.00004 -3.04179e-05 0)
(1.00001 -0.000189773 0)
(0.999772 2.22492e-05 0)
(0.999855 0.000381065 0)
(0.999888 0.000222916 0)
(0.999651 9.39439e-05 0)
(0.999486 0.000130877 0)
(0.999796 0.000482312 0)
(0.999871 0.000786046 0)
(0.999665 0.00142299 0)
(0.999701 0.00195798 0)
(1.00043 0.00243022 0)
(1.00126 0.00284942 0)
(1.002 0.00339341 0)
(1.00281 0.00373536 0)
(1.00388 0.00412835 0)
(1.00485 0.00420094 0)
(1.00559 0.00428337 0)
(1.00579 0.0040445 0)
(0.999969 3.36595e-05 0)
(1.00003 -4.47038e-05 0)
(1.00004 -1.59814e-05 0)
(0.999821 0.000141065 0)
(0.999833 0.000133882 0)
(0.999839 -9.84408e-05 0)
(0.999688 9.43201e-05 0)
(0.999589 0.000542117 0)
(0.999929 0.000919337 0)
(1.00005 0.00102449 0)
(0.999927 0.00151007 0)
(0.999956 0.00205273 0)
(1.00062 0.00261569 0)
(1.00148 0.0029662 0)
(1.00223 0.00342091 0)
(1.00306 0.0037519 0)
(1.00402 0.00389541 0)
(1.00481 0.00372786 0)
(1.00534 0.0034021 0)
(1.00531 0.00292724 0)
(0.999969 1.63302e-05 0)
(1.00005 1.7215e-05 0)
(1.00005 2.6773e-05 0)
(0.999809 -2.35456e-06 0)
(0.999781 -7.36034e-05 0)
(0.999884 -3.18586e-05 0)
(0.999856 0.000434513 0)
(0.999768 0.000961079 0)
(0.999981 0.00110083 0)
(1.00011 0.000960604 0)
(1.00013 0.00128478 0)
(1.00025 0.00191368 0)
(1.0009 0.00267165 0)
(1.00175 0.00308837 0)
(1.00248 0.0034956 0)
(1.00314 0.00358981 0)
(1.00382 0.0033437 0)
(1.00443 0.00293043 0)
(1.00486 0.00250514 0)
(1.00493 0.0021904 0)
(0.999974 1.92087e-05 0)
(1.00005 3.91713e-05 0)
(1.00002 -7.6642e-05 0)
(0.99981 -0.000111412 0)
(0.999813 6.15814e-05 0)
(1.00002 0.000309622 0)
(1.00002 0.00062409 0)
(0.999852 0.000846034 0)
(0.99991 0.000817334 0)
(1.00015 0.000810939 0)
(1.00041 0.00130716 0)
(1.00071 0.00212052 0)
(1.0013 0.00288384 0)
(1.002 0.00321622 0)
(1.00255 0.00332099 0)
(1.00293 0.00310874 0)
(1.00345 0.00280313 0)
(1.00407 0.00246305 0)
(1.00463 0.00227608 0)
(1.00492 0.00219316 0)
(0.999983 2.22854e-05 0)
(1.00003 4.77339e-06 0)
(0.999997 -0.00012576 0)
(0.999882 -2.16151e-05 0)
(0.999904 0.000295191 0)
(1.0001 0.000412304 0)
(1.00005 0.000381426 0)
(0.999864 0.000464602 0)
(0.999954 0.000712126 0)
(1.00039 0.00115398 0)
(1.00083 0.00181395 0)
(1.00118 0.00245709 0)
(1.00158 0.00284553 0)
(1.00203 0.00287554 0)
(1.00239 0.0027095 0)
(1.0027 0.00254318 0)
(1.00326 0.00248743 0)
(1.00394 0.00239805 0)
(1.00458 0.00231592 0)
(1.0049 0.00218333 0)
(0.99999 1.20382e-05 0)
(1.00001 -9.55706e-06 0)
(1.00002 -5.7886e-05 0)
(0.999971 7.9025e-05 0)
(0.99995 0.000290679 0)
(1.00007 0.000224991 0)
(1.00004 0.000168909 0)
(1.00002 0.000482115 0)
(1.00025 0.00106724 0)
(1.00076 0.00166022 0)
(1.00114 0.00204716 0)
(1.00135 0.00221095 0)
(1.00156 0.00223011 0)
(1.00189 0.0021444 0)
(1.00229 0.00213863 0)
(1.00275 0.00231403 0)
(1.00333 0.00249793 0)
(1.00389 0.00253311 0)
(1.00438 0.00237158 0)
(1.00462 0.00211435 0)
(0.999991 2.8085e-06 0)
(1.00001 1.16598e-05 0)
(1.00005 5.27858e-06 0)
(1.00001 4.80027e-05 0)
(0.999956 0.000144231 0)
(1.00007 0.000146381 0)
(1.00016 0.00033372 0)
(1.00032 0.000772786 0)
(1.00057 0.00128017 0)
(1.00095 0.00158111 0)
(1.00115 0.0015798 0)
(1.0013 0.00156753 0)
(1.00152 0.00166197 0)
(1.00198 0.00188951 0)
(1.00255 0.00224154 0)
(1.00306 0.0026023 0)
(1.00348 0.00278377 0)
(1.00378 0.00271033 0)
(1.00406 0.0024864 0)
(1.00433 0.00222124 0)
(0.999991 4.11314e-06 0)
(1.00002 2.1218e-05 0)
(1.00005 4.94459e-06 0)
(1.00001 -8.03495e-06 0)
(1.00001 0.000105857 0)
(1.00015 0.000274569 0)
(1.00035 0.000540231 0)
(1.00052 0.00078012 0)
(1.0007 0.00100534 0)
(1.00093 0.00105059 0)
(1.00113 0.00108931 0)
(1.00143 0.00136046 0)
(1.00183 0.00177613 0)
(1.00242 0.00227586 0)
(1.00296 0.00261045 0)
(1.00329 0.00275934 0)
(1.00342 0.00270257 0)
(1.00352 0.00248834 0)
(1.00373 0.00229962 0)
(1.00411 0.00214136 0)
(0.999992 7.56402e-06 0)
(1.00002 8.96682e-06 0)
(1.00004 -1.4533e-06 0)
(1.00004 1.02066e-05 0)
(1.0001 0.000159668 0)
(1.00025 0.000344461 0)
(1.00045 0.000466153 0)
(1.00056 0.000518615 0)
(1.00075 0.000653087 0)
(1.001 0.000762599 0)
(1.0014 0.00111133 0)
(1.00186 0.00156132 0)
(1.00232 0.00200617 0)
(1.00275 0.00228358 0)
(1.00302 0.00228657 0)
(1.00314 0.00216424 0)
(1.00313 0.00201987 0)
(1.00326 0.00196054 0)
(1.00357 0.00197428 0)
(1.00404 0.00203958 0)
(0.999996 7.23805e-06 0)
(1.00002 2.90264e-06 0)
(1.00004 1.54224e-05 0)
(1.00009 5.03198e-05 0)
(1.00017 0.000165858 0)
(1.0003 0.000253504 0)
(1.00046 0.000282263 0)
(1.00061 0.000363769 0)
(1.00089 0.000553008 0)
(1.00126 0.000790418 0)
(1.00179 0.00115993 0)
(1.00217 0.00137217 0)
(1.0025 0.00153487 0)
(1.00266 0.00147416 0)
(1.00282 0.00143273 0)
(1.00297 0.00142262 0)
(1.00317 0.00160022 0)
(1.00348 0.00190072 0)
(1.00387 0.00217215 0)
(1.00426 0.00235795 0)
(0.999997 6.76049e-06 0)
(1.00002 9.46126e-06 0)
(1.00006 2.70264e-05 0)
(1.00012 5.37865e-05 0)
(1.00019 0.000116546 0)
(1.00032 0.000147105 0)
(1.0005 0.000216946 0)
(1.00075 0.000344799 0)
(1.00106 0.00050039 0)
(1.00147 0.000656028 0)
(1.00189 0.0007279 0)
(1.00217 0.000668101 0)
(1.00242 0.000676936 0)
(1.00262 0.000683164 0)
(1.00298 0.000946064 0)
(1.00338 0.00124857 0)
(1.00384 0.001713 0)
(1.00414 0.00206282 0)
(1.00433 0.00229022 0)
(1.00433 0.0022473 0)
(0.999997 8.15047e-06 0)
(1.00002 1.38628e-05 0)
(1.00007 2.29117e-05 0)
(1.00013 3.75701e-05 0)
(1.00021 7.82416e-05 0)
(1.00037 0.000109826 0)
(1.00057 0.000201799 0)
(1.00083 0.000239836 0)
(1.0011 0.000280267 0)
(1.00146 0.000244257 0)
(1.00177 0.000133633 0)
(1.00214 6.92464e-05 0)
(1.00251 0.000150776 0)
(1.00301 0.000359374 0)
(1.00356 0.000694287 0)
(1.00405 0.00096088 0)
(1.00439 0.00119425 0)
(1.00439 0.00119411 0)
(1.00416 0.0011391 0)
(1.00376 0.000891466 0)
(0.999997 8.99772e-06 0)
(1.00003 1.24092e-05 0)
(1.00008 1.97321e-05 0)
(1.00014 2.53995e-05 0)
(1.00024 6.08253e-05 0)
(1.0004 8.13717e-05 0)
(1.00059 0.000109702 0)
(1.00081 3.74389e-05 0)
(1.00104 1.11551e-05 0)
(1.00135 -0.00012295 0)
(1.00171 -0.000184643 0)
(1.00223 -0.000224168 0)
(1.00274 -0.00017263 0)
(1.00333 -0.000141728 0)
(1.00377 -0.000160773 0)
(1.00411 -0.000285945 0)
(1.00416 -0.000445453 0)
(1.00402 -0.000635201 0)
(1.00372 -0.000662336 0)
(1.00349 -0.000616284 0)
(0.999999 8.49639e-06 0)
(1.00003 1.14987e-05 0)
(1.00008 2.13619e-05 0)
(1.00016 1.31873e-05 0)
(1.00025 3.83172e-05 0)
(1.00039 1.81226e-05 0)
(1.00055 -1.42329e-05 0)
(1.00074 -0.000109617 0)
(1.00097 -0.00015896 0)
(1.00127 -0.000304004 0)
(1.00167 -0.00035992 0)
(1.00215 -0.000560352 0)
(1.0026 -0.000743853 0)
(1.003 -0.00109807 0)
(1.00329 -0.00142582 0)
(1.00357 -0.00178953 0)
(1.00375 -0.00197071 0)
(1.00402 -0.00199836 0)
(1.00424 -0.00174756 0)
(1.00454 -0.0013864 0)
(1 7.98919e-06 0)
(1.00002 1.18695e-05 0)
(1.00008 1.94716e-05 0)
(1.00016 2.43932e-07 0)
(1.00024 7.52523e-06 0)
(1.00036 -4.29565e-05 0)
(1.00049 -8.23663e-05 0)
(1.00067 -0.000173528 0)
(1.00087 -0.000267145 0)
(1.00113 -0.000437894 0)
(1.00143 -0.000627587 0)
(1.00172 -0.000983 0)
(1.00201 -0.00133349 0)
(1.00229 -0.0017855 0)
(1.00267 -0.00210459 0)
(1.00316 -0.00241778 0)
(1.00379 -0.0025275 0)
(1.00451 -0.00259918 0)
(1.00513 -0.00253421 0)
(1.00556 -0.00249277 0)
(1 7.16049e-06 0)
(1.00002 1.15805e-05 0)
(1.00007 1.38387e-05 0)
(1.00014 -5.27429e-06 0)
(1.00022 -1.70455e-05 0)
(1.00031 -6.44866e-05 0)
(1.00043 -0.000107097 0)
(1.00056 -0.000216086 0)
(1.0007 -0.000353194 0)
(1.00085 -0.000558695 0)
(1.001 -0.000828307 0)
(1.00119 -0.0011542 0)
(1.00144 -0.0014756 0)
(1.00177 -0.0017908 0)
(1.00222 -0.00206436 0)
(1.00276 -0.00237365 0)
(1.00338 -0.00270323 0)
(1.00394 -0.00313788 0)
(1.00445 -0.00359326 0)
(1.00481 -0.00404286 0)
(1 4.34546e-06 0)
(1.00002 1.13095e-05 0)
(1.00007 9.72989e-06 0)
(1.00013 -4.64182e-06 0)
(1.0002 -2.42532e-05 0)
(1.00027 -6.07301e-05 0)
(1.00035 -0.000119028 0)
(1.00042 -0.000225231 0)
(1.00049 -0.000357991 0)
(1.00055 -0.000541494 0)
(1.00064 -0.000755898 0)
(1.00079 -0.000989825 0)
(1.00101 -0.00125709 0)
(1.00129 -0.00154433 0)
(1.00157 -0.00189375 0)
(1.00182 -0.00227665 0)
(1.00205 -0.00272691 0)
(1.0023 -0.00317491 0)
(1.0027 -0.00360649 0)
(1.00335 -0.00393533 0)
(1 3.14838e-06 0)
(1.00002 1.01848e-05 0)
(1.00006 6.19502e-06 0)
(1.00011 1.51548e-06 0)
(1.00017 -2.18623e-05 0)
(1.00022 -4.2774e-05 0)
(1.00026 -0.000104961 0)
(1.0003 -0.000158108 0)
(1.00032 -0.000272029 0)
(1.00033 -0.000367342 0)
(1.00037 -0.000531977 0)
(1.00041 -0.000690707 0)
(1.00049 -0.000953072 0)
(1.00058 -0.00121069 0)
(1.00072 -0.00153997 0)
(1.00092 -0.00177345 0)
(1.00123 -0.00197752 0)
(1.00169 -0.00198921 0)
(1.00233 -0.00195492 0)
(1.00323 -0.00179197 0)
(1 -1.29449e-05 0)
(1.00002 3.36102e-05 0)
(1.00006 -2.4949e-05 0)
(1.00011 4.05353e-05 0)
(1.00015 -4.9378e-05 0)
(1.00019 2.35971e-05 0)
(1.00021 -9.43187e-05 0)
(1.00024 -2.2028e-05 0)
(1.0002 -0.000183102 0)
(1.00021 -0.000134329 0)
(1.00011 -0.00033944 0)
(1.00011 -0.000348997 0)
(1.00003 -0.000575228 0)
(1.00015 -0.000600862 0)
(1.00034 -0.000762646 0)
(1.00084 -0.000706976 0)
(1.00152 -0.000706211 0)
(1.00243 -0.000471259 0)
(1.00333 -0.000244626 0)
(1.00422 0.000145196 0)
(1.00001 -1.50107e-05 0)
(1.00001 2.9145e-05 0)
(1.00007 -2.69133e-05 0)
(1.00009 3.71916e-05 0)
(1.00015 -3.90089e-05 0)
(1.00018 3.7878e-05 0)
(1.0002 -5.01537e-05 0)
(1.0002 2.96627e-05 0)
(1.00015 -7.58699e-05 0)
(1.00012 -7.61201e-06 0)
(0.999996 -0.000130326 0)
(1.00001 -8.19513e-05 0)
(0.999993 -0.00017806 0)
(1.00021 -0.000109973 0)
(1.00049 -0.000142972 0)
(1.00109 -5.30412e-05 0)
(1.00189 -4.20809e-05 0)
(1.00309 7.11611e-05 0)
(1.00436 0.000169985 0)
(1.00537 0.000364284 0)
(0.989053 -7.30373e-05 0)
(0.96385 0.000477827 0)
(0.938626 0.00105079 0)
(0.913523 0.0015485 0)
(0.888521 0.00187294 0)
(0.863393 0.00211103 0)
(0.838265 0.00228601 0)
(0.812494 0.00231238 0)
(0.786092 0.00235966 0)
(0.758801 0.00243566 0)
(0.730786 0.00240428 0)
(0.70227 0.00245754 0)
(0.673165 0.0024862 0)
(0.64448 0.00251905 0)
(0.615037 0.00251888 0)
(0.585245 0.00243654 0)
(0.555591 0.00256562 0)
(0.524467 0.00258829 0)
(0.493005 0.00255626 0)
(0.461389 0.00265033 0)
(0.429696 0.00243819 0)
(0.399099 0.0022276 0)
(0.368657 0.00228089 0)
(0.339406 0.00209267 0)
(0.312883 0.00173254 0)
(0.289074 0.00142322 0)
(0.268998 0.00089357 0)
(0.253207 0.000291108 0)
(0.241876 -9.21202e-05 0)
(0.23432 -0.000359064 0)
(0.229006 -0.000533004 0)
(0.22498 -0.000633498 0)
(0.221526 -0.00067425 0)
(0.218736 -0.00055593 0)
(0.216891 -0.000441011 0)
(0.215485 -0.000417864 0)
(0.214119 -0.000321676 0)
(0.212411 -0.000198886 0)
(0.210364 -0.000138172 0)
(0.208373 -8.45951e-05 0)
(0.2064 -3.91176e-05 0)
(0.204296 1.25331e-06 0)
(0.202257 4.95246e-05 0)
(0.200126 6.22388e-05 0)
(0.19782 3.63626e-05 0)
(0.195572 9.42349e-06 0)
(0.193608 -1.33018e-05 0)
(0.191792 -3.43894e-05 0)
(0.190133 -4.51108e-05 0)
(0.188668 -3.79355e-05 0)
(0.187447 -2.35034e-05 0)
(0.186345 -1.61521e-05 0)
(0.185371 -1.25439e-05 0)
(0.184422 -1.25034e-05 0)
(0.183576 -2.205e-05 0)
(0.182854 -2.70012e-05 0)
(0.182275 -1.64125e-05 0)
(0.181753 -9.07446e-06 0)
(0.181425 -1.22526e-05 0)
(0.181216 -1.25966e-05 0)
(0.181006 -6.727e-06 0)
(0.180764 -5.32259e-06 0)
(0.180657 -5.92771e-06 0)
(0.180651 -3.6122e-06 0)
(0.180661 -1.14749e-08 0)
(0.180651 6.48779e-07 0)
(0.180688 3.02955e-07 0)
(0.180749 6.02667e-07 0)
(0.180815 7.87693e-07 0)
(0.180855 6.96191e-07 0)
(0.180907 2.2098e-07 0)
(0.180939 3.5978e-07 0)
(0.18099 2.06033e-07 0)
(0.181011 3.4663e-07 0)
(0.181059 1.8323e-07 0)
(0.18107 1.65077e-07 0)
(0.181117 4.76814e-08 0)
(0.181118 -6.00943e-08 0)
(0.181161 -1.13433e-07 0)
(0.181151 -1.32278e-07 0)
(0.181191 -1.74339e-07 0)
(0.181167 -4.66174e-08 0)
(0.181209 -1.50558e-07 0)
(0.181172 4.24106e-08 0)
(0.18122 -7.20396e-08 0)
(0.181169 5.67276e-08 0)
(0.181226 2.50708e-08 0)
(0.181161 7.4291e-08 0)
(0.18123 7.02103e-08 0)
(0.181147 2.24941e-07 0)
(0.181232 7.10133e-08 0)
(0.181118 5.34833e-07 0)
(0.181228 2.49476e-07 0)
(0.181063 9.97387e-07 0)
(0.181204 1.03055e-06 0)
(0.18094 1.92841e-06 0)
(0.181119 3.92462e-06 0)
(0.1806 2.66732e-06 0)
(0.180912 1.93367e-05 0)
(0.179129 3.27047e-05 0)
(1.00179 0.000605648 0)
(1.00031 0.00172305 0)
(0.998417 0.00286902 0)
(0.996557 0.00387233 0)
(0.994491 0.00447202 0)
(0.992234 0.0049013 0)
(0.989643 0.00514566 0)
(0.986332 0.00517806 0)
(0.982241 0.00525626 0)
(0.97707 0.00540635 0)
(0.971088 0.00542574 0)
(0.964165 0.00549615 0)
(0.956644 0.00570015 0)
(0.948426 0.00579516 0)
(0.939573 0.00590421 0)
(0.929541 0.00594052 0)
(0.918861 0.00600687 0)
(0.906887 0.00621232 0)
(0.893301 0.006193 0)
(0.879655 0.0062222 0)
(0.864228 0.00627925 0)
(0.848661 0.00609643 0)
(0.832309 0.00605375 0)
(0.814701 0.00593401 0)
(0.797746 0.00546534 0)
(0.780238 0.00501754 0)
(0.764256 0.00461348 0)
(0.748641 0.00397393 0)
(0.73421 0.00313027 0)
(0.722533 0.00237579 0)
(0.710063 0.00185614 0)
(0.699348 0.00157227 0)
(0.689832 0.00140643 0)
(0.678709 0.00114714 0)
(0.669878 0.000862358 0)
(0.661552 0.000737491 0)
(0.651625 0.000710313 0)
(0.64297 0.000671821 0)
(0.634496 0.000609632 0)
(0.625397 0.000555803 0)
(0.617491 0.000533786 0)
(0.609875 0.000513055 0)
(0.602143 0.000487302 0)
(0.594723 0.000508483 0)
(0.587283 0.000517824 0)
(0.579815 0.000440959 0)
(0.57302 0.000368264 0)
(0.56659 0.000350186 0)
(0.560443 0.000295691 0)
(0.554682 0.000216554 0)
(0.549701 0.000178495 0)
(0.545026 0.000149907 0)
(0.540639 0.000118282 0)
(0.536676 0.000107589 0)
(0.53336 9.04784e-05 0)
(0.530137 5.70203e-05 0)
(0.527267 3.68945e-05 0)
(0.524886 1.77385e-05 0)
(0.523034 -3.95805e-06 0)
(0.521317 -6.89533e-06 0)
(0.519881 2.04733e-06 0)
(0.518681 -9.14288e-06 0)
(0.517782 -2.49297e-05 0)
(0.517059 -2.62961e-05 0)
(0.516555 -1.9662e-05 0)
(0.516201 -1.99643e-05 0)
(0.516018 -2.08965e-05 0)
(0.515929 -1.70241e-05 0)
(0.515937 -1.22141e-05 0)
(0.515944 -8.77734e-06 0)
(0.516022 -7.64103e-06 0)
(0.516052 -5.5331e-06 0)
(0.516173 -4.78799e-06 0)
(0.516206 -3.47703e-06 0)
(0.516361 -2.92104e-06 0)
(0.516393 -2.03472e-06 0)
(0.516567 -1.20083e-06 0)
(0.516586 -8.47609e-07 0)
(0.516757 -2.64523e-07 0)
(0.516741 -2.71216e-07 0)
(0.516897 -1.60486e-07 0)
(0.516832 -4.62298e-08 0)
(0.516985 -2.91759e-07 0)
(0.516868 6.16484e-08 0)
(0.517035 -2.00778e-07 0)
(0.516871 4.19479e-08 0)
(0.517063 9.8438e-08 0)
(0.516857 2.52834e-08 0)
(0.517083 3.18082e-07 0)
(0.516825 3.28208e-07 0)
(0.51711 4.24334e-07 0)
(0.516761 9.11135e-07 0)
(0.517148 1.19518e-06 0)
(0.516644 1.38341e-06 0)
(0.517181 3.96524e-06 0)
(0.516427 2.32677e-06 0)
(0.517183 1.12623e-05 0)
(0.515923 6.72904e-06 0)
(0.517051 2.90925e-05 0)
(0.514549 8.13722e-05 0)
(1.00164 0.00105272 0)
(1.00076 0.0020976 0)
(0.999899 0.00330645 0)
(0.999552 0.00448926 0)
(0.999522 0.00532567 0)
(0.999857 0.00591535 0)
(1.00045 0.00621972 0)
(1.00085 0.00626702 0)
(1.0011 0.0063832 0)
(1.0008 0.00656972 0)
(1.00041 0.00657086 0)
(0.999558 0.00658541 0)
(0.998759 0.00681637 0)
(0.997849 0.00700077 0)
(0.996799 0.0071541 0)
(0.995437 0.00723183 0)
(0.993543 0.00731298 0)
(0.991458 0.00767879 0)
(0.988437 0.00766212 0)
(0.985453 0.00764557 0)
(0.981955 0.00796098 0)
(0.978214 0.00776638 0)
(0.974137 0.00766861 0)
(0.969078 0.00762146 0)
(0.96413 0.00717657 0)
(0.958486 0.00676304 0)
(0.953086 0.00629119 0)
(0.947564 0.00572708 0)
(0.941632 0.00476564 0)
(0.936442 0.00379639 0)
(0.93053 0.00341756 0)
(0.925052 0.00300949 0)
(0.920344 0.00273215 0)
(0.914468 0.00261941 0)
(0.909387 0.00212816 0)
(0.904543 0.00190951 0)
(0.898616 0.00206191 0)
(0.893478 0.00196742 0)
(0.888546 0.00186113 0)
(0.882722 0.00184155 0)
(0.877398 0.00171391 0)
(0.872039 0.0016165 0)
(0.866324 0.0015618 0)
(0.860558 0.00153375 0)
(0.854708 0.00154492 0)
(0.848639 0.0014527 0)
(0.842933 0.00130195 0)
(0.837349 0.00123915 0)
(0.832159 0.00117063 0)
(0.827039 0.00104283 0)
(0.822286 0.000934808 0)
(0.817558 0.000856993 0)
(0.812962 0.000786482 0)
(0.808365 0.000710188 0)
(0.804335 0.000617945 0)
(0.800291 0.000543749 0)
(0.796514 0.000493273 0)
(0.793023 0.000406624 0)
(0.79006 0.000310436 0)
(0.787135 0.000267719 0)
(0.784572 0.000251171 0)
(0.782256 0.000197026 0)
(0.780284 0.000136504 0)
(0.778462 0.000103935 0)
(0.77696 8.54261e-05 0)
(0.775654 5.58534e-05 0)
(0.774611 2.84129e-05 0)
(0.773701 1.29594e-05 0)
(0.773034 4.77548e-06 0)
(0.772424 -1.74872e-06 0)
(0.772052 -7.44326e-06 0)
(0.771656 -9.85357e-06 0)
(0.771526 -1.19826e-05 0)
(0.771288 -1.32096e-05 0)
(0.771346 -1.44333e-05 0)
(0.771238 -1.50807e-05 0)
(0.771449 -1.42816e-05 0)
(0.771449 -1.34178e-05 0)
(0.771757 -1.06981e-05 0)
(0.771792 -8.64941e-06 0)
(0.772122 -5.83209e-06 0)
(0.772103 -3.86394e-06 0)
(0.772414 -2.36019e-06 0)
(0.772293 -1.15123e-06 0)
(0.772592 -6.13559e-07 0)
(0.772374 -3.33953e-07 0)
(0.772679 2.95992e-07 0)
(0.772392 -2.82289e-07 0)
(0.772723 8.32476e-07 0)
(0.772367 -2.08591e-08 0)
(0.772766 1.24429e-06 0)
(0.772299 6.37425e-07 0)
(0.77282 2.4972e-06 0)
(0.772187 1.44769e-06 0)
(0.772861 6.21796e-06 0)
(0.77201 3.61607e-06 0)
(0.772858 1.47035e-05 0)
(0.771645 1.50714e-05 0)
(0.772681 3.03242e-05 0)
(0.770767 0.000116446 0)
(1.00185 0.0010918 0)
(1.00102 0.00189964 0)
(1.00026 0.00301789 0)
(0.99991 0.00427103 0)
(0.999912 0.0053847 0)
(1.00029 0.00618096 0)
(1.00098 0.00653206 0)
(1.00164 0.00655585 0)
(1.00224 0.0066419 0)
(1.00245 0.00677807 0)
(1.00263 0.00671068 0)
(1.00265 0.00659049 0)
(1.0028 0.0067623 0)
(1.00316 0.0070602 0)
(1.00349 0.00723782 0)
(1.00386 0.00730206 0)
(1.00397 0.00748982 0)
(1.00407 0.0079391 0)
(1.00386 0.0078252 0)
(1.00366 0.00781308 0)
(1.00367 0.00828033 0)
(1.00368 0.0080226 0)
(1.00355 0.00784985 0)
(1.00311 0.00786978 0)
(1.00263 0.00748866 0)
(1.00188 0.00706822 0)
(1.00118 0.00653004 0)
(1.0003 0.00593376 0)
(0.999022 0.00490739 0)
(0.997481 0.00393737 0)
(0.995475 0.00362889 0)
(0.993763 0.003152 0)
(0.992257 0.00288058 0)
(0.990229 0.00283444 0)
(0.988531 0.00227831 0)
(0.98658 0.00213957 0)
(0.984315 0.0024214 0)
(0.982778 0.00226266 0)
(0.981302 0.00214307 0)
(0.979169 0.00217229 0)
(0.977366 0.00202948 0)
(0.9755 0.00196477 0)
(0.97337 0.00196351 0)
(0.971024 0.00196736 0)
(0.968691 0.00203391 0)
(0.965988 0.0019522 0)
(0.963321 0.00176476 0)
(0.960604 0.0016862 0)
(0.958207 0.00159107 0)
(0.955648 0.00142013 0)
(0.953459 0.00129596 0)
(0.951232 0.00122314 0)
(0.94913 0.00115977 0)
(0.946804 0.0010805 0)
(0.94477 0.000970388 0)
(0.942368 0.00088377 0)
(0.940173 0.000824433 0)
(0.938008 0.000708321 0)
(0.936143 0.000577651 0)
(0.934081 0.000519586 0)
(0.932364 0.000490761 0)
(0.93067 0.000409242 0)
(0.929181 0.000320546 0)
(0.92766 0.000268296 0)
(0.92644 0.000232145 0)
(0.925254 0.000180614 0)
(0.924277 0.000133651 0)
(0.923298 0.000101955 0)
(0.922568 8.08657e-05 0)
(0.921798 6.11384e-05 0)
(0.921289 4.39713e-05 0)
(0.92068 3.04838e-05 0)
(0.920383 1.89078e-05 0)
(0.919925 8.86566e-06 0)
(0.919819 -2.88396e-07 0)
(0.919508 -8.43502e-06 0)
(0.919571 -1.47182e-05 0)
(0.919399 -2.01293e-05 0)
(0.919602 -2.20124e-05 0)
(0.919538 -2.29704e-05 0)
(0.919848 -2.04342e-05 0)
(0.919824 -1.77247e-05 0)
(0.920187 -1.35451e-05 0)
(0.920114 -9.92428e-06 0)
(0.920478 -6.57744e-06 0)
(0.920311 -4.30329e-06 0)
(0.920654 -1.94596e-06 0)
(0.920403 -1.7477e-06 0)
(0.920739 5.27794e-07 0)
(0.920417 -6.4391e-07 0)
(0.920789 1.75784e-06 0)
(0.920375 5.04884e-07 0)
(0.920834 3.25912e-06 0)
(0.920296 2.06481e-06 0)
(0.92086 7.49573e-06 0)
(0.920182 5.54433e-06 0)
(0.920836 1.69903e-05 0)
(0.919958 2.23194e-05 0)
(0.920661 3.39145e-05 0)
(0.919416 0.000139576 0)
(1.00202 0.000787904 0)
(1.00129 0.00141105 0)
(1.00064 0.00248362 0)
(1.00032 0.0037309 0)
(1.00027 0.00505029 0)
(1.00056 0.00602795 0)