/*--------------------------------*- C++ -*----------------------------------*\
  =========                 |
  \\      /  F ield         | OpenFOAM: The Open Source CFD Toolbox
   \\    /   O peration     | Website:  https://openfoam.org
    \\  /    A nd           | Version:  6
     \\/     M anipulation  |
\*---------------------------------------------------------------------------*/
FoamFile
{
    version     2.0;
    format      ascii;
    class       surfaceScalarField;
    location    "0.3";
    object      phi;
}
// * * * * * * * * * * * * * * * * * * * * * * * * * * * * * * * * * * * * * //

dimensions      [0 3 -1 0 0 0 0];

internalField   nonuniform List<scalar> 
9440
(
3.88178e-06
-1.17193e-08
3.87563e-06
-4.58565e-09
3.88059e-06
-2.38416e-09
3.87219e-06
-1.37853e-08
3.88182e-06
3.7242e-08
3.87529e-06
1.73825e-08
3.87508e-06
-8.15332e-08
3.8761e-06
2.38583e-08
3.88068e-06
-5.61693e-09
3.87485e-06
-8.3834e-09
3.87759e-06
-4.37051e-09
3.87086e-06
-1.27189e-08
3.87478e-06
1.09602e-08
3.86936e-06
1.21553e-08
3.87657e-06
1.92234e-08
3.8825e-06
1.34954e-08
3.91109e-06
9.14874e-09
3.94192e-06
5.89961e-09
3.94778e-06
-4.72051e-08
3.61948e-08
3.83982e-06
4.18357e-06
-9.42808e-09
4.18604e-06
-7.06153e-09
4.18372e-06
-6.35757e-11
4.1836e-06
-1.36617e-08
4.18563e-06
3.5215e-08
4.18693e-06
1.60771e-08
4.18001e-06
-7.46145e-08
4.18673e-06
1.71465e-08
4.18567e-06
-4.56409e-09
4.185e-06
-7.70674e-09
4.1827e-06
-2.07438e-09
4.1808e-06
-1.08155e-08
4.18008e-06
1.16748e-08
4.17801e-06
1.42235e-08
4.17966e-06
1.75809e-08
4.1829e-06
1.02561e-08
4.19716e-06
-5.11463e-09
4.2211e-06
-1.804e-08
4.22675e-06
-5.28601e-08
1.28842e-07
4.13411e-06
4.51783e-06
-7.20009e-09
4.5191e-06
-8.32873e-09
4.51795e-06
1.09002e-09
4.51706e-06
-1.27721e-08
4.51951e-06
3.27611e-08
4.52021e-06
1.53789e-08
4.51457e-06
-6.89698e-08
4.51803e-06
1.3684e-08
4.51823e-06
-4.76273e-09
4.51613e-06
-5.60883e-09
4.5151e-06
-1.04942e-09
4.51333e-06
-9.04304e-09
4.51412e-06
1.0891e-08
4.51217e-06
1.6169e-08
4.51585e-06
1.39034e-08
4.51915e-06
6.9486e-09
4.535e-06
-2.09563e-08
4.54917e-06
-3.22109e-08
4.49382e-06
2.4906e-09
1.60993e-07
4.46167e-06
4.88026e-06
-6.50812e-09
4.87968e-06
-7.74839e-09
4.88017e-06
5.9682e-10
4.87828e-06
-1.08832e-08
4.88116e-06
2.98847e-08
4.88181e-06
1.47292e-08
4.87602e-06
-6.31837e-08
4.87857e-06
1.11377e-08
4.87799e-06
-4.18714e-09
4.87683e-06
-4.44879e-09
4.87488e-06
8.9647e-10
4.8745e-06
-8.65944e-09
4.87499e-06
1.03984e-08
4.87538e-06
1.57839e-08
4.87924e-06
1.00403e-08
4.88337e-06
2.81842e-09
4.89369e-06
-3.12748e-08
4.87964e-06
-1.81568e-08
4.8199e-06
6.2227e-08
1.63959e-07
4.81693e-06
5.27045e-06
-6.30875e-09
5.26925e-06
-6.54699e-09
5.27036e-06
-5.17371e-10
5.26837e-06
-8.89429e-09
5.27107e-06
2.71875e-08
5.27229e-06
1.35076e-08
5.26576e-06
-5.66562e-08
5.26839e-06
8.51221e-09
5.26675e-06
-2.54552e-09
5.26741e-06
-5.11088e-09
5.26398e-06
4.32492e-09
5.26471e-06
-9.39004e-09
5.26465e-06
1.04608e-08
5.26731e-06
1.3121e-08
5.27066e-06
6.68739e-09
5.27423e-06
-7.49932e-10
5.27032e-06
-2.73606e-08
5.2287e-06
2.34655e-08
5.19437e-06
9.65479e-08
1.53102e-07
5.20523e-06
5.69131e-06
-6.16043e-09
5.68995e-06
-5.18407e-09
5.6911e-06
-1.67163e-09
5.68952e-06
-7.30867e-09
5.69172e-06
2.49849e-08
5.69329e-06
1.19414e-08
5.68684e-06
-5.02135e-08
5.689e-06
6.35868e-09
5.68687e-06
-4.16002e-10
5.68895e-06
-7.19727e-09
5.68456e-06
8.71545e-09
5.68564e-06
-1.04634e-08
5.68571e-06
1.03856e-08
5.68895e-06
9.87789e-09
5.69178e-06
3.85738e-09
5.6913e-06
-2.68181e-10
5.66725e-06
-3.3112e-09
5.6237e-06
6.70222e-08
5.60405e-06
1.16198e-07
1.19068e-07
5.63808e-06
6.14566e-06
-5.94593e-09
6.14436e-06
-3.89221e-09
6.14512e-06
-2.423e-09
6.14441e-06
-6.60454e-09
6.14584e-06
2.35526e-08
6.14737e-06
1.04103e-08
6.14215e-06
-4.49863e-08
6.14272e-06
5.78716e-09
6.14105e-06
1.25237e-09
6.14344e-06
-9.58555e-09
6.13944e-06
1.27114e-08
6.13983e-06
-1.08551e-08
6.14068e-06
9.54407e-09
6.14262e-06
7.93011e-09
6.14433e-06
2.15323e-09
6.13492e-06
9.14444e-09
6.09908e-06
3.25223e-08
6.06488e-06
1.01226e-07
6.04932e-06
1.31754e-07
4.0844e-08
6.12755e-06
6.63624e-06
-5.61938e-09
6.6352e-06
-2.85361e-09
6.63517e-06
-2.39212e-09
6.63576e-06
-7.20122e-09
6.63631e-06
2.3003e-08
6.63749e-06
9.23483e-09
6.63383e-06
-4.13302e-08
6.63279e-06
6.82592e-09
6.63187e-06
2.17531e-09
6.63358e-06
-1.13006e-08
6.63109e-06
1.52092e-08
6.62999e-06
-9.75809e-09
6.63154e-06
7.9976e-09
6.63128e-06
8.19026e-09
6.6294e-06
4.02485e-09
6.61052e-06
2.80317e-08
6.57386e-06
6.91802e-08
6.55205e-06
1.23035e-07
6.54265e-06
1.4115e-07
-7.15774e-08
6.65508e-06
7.16599e-06
-5.17759e-09
7.1653e-06
-2.16922e-09
7.16436e-06
-1.446e-09
7.16624e-06
-9.08405e-09
7.16606e-06
2.3182e-08
7.16678e-06
8.51482e-09
7.1643e-06
-3.88437e-08
7.16268e-06
8.44515e-09
7.16161e-06
3.24473e-09
7.1627e-06
-1.23984e-08
7.16175e-06
1.61675e-08
7.15914e-06
-7.14968e-09
7.16073e-06
6.40172e-09
7.15777e-06
1.11507e-08
7.14918e-06
1.26173e-08
7.12591e-06
5.13058e-08
7.0957e-06
9.93892e-08
7.08552e-06
1.33211e-07
7.10416e-06
1.22515e-07
-1.60132e-07
7.19271e-06
7.73805e-06
-4.62066e-09
7.73779e-06
-1.91284e-09
7.73609e-06
2.56244e-10
7.73844e-06
-1.14374e-08
7.73844e-06
2.31808e-08
7.73866e-06
8.29378e-09
7.73632e-06
-3.65042e-08
7.73517e-06
9.59678e-09
7.73358e-06
4.83729e-09
7.73437e-06
-1.31877e-08
7.73413e-06
1.64033e-08
7.7302e-06
-3.21441e-09
7.73098e-06
5.62315e-09
7.72449e-06
1.7637e-08
7.70903e-06
2.80763e-08
7.68749e-06
7.28487e-08
7.66806e-06
1.18815e-07
7.67098e-06
1.30298e-07
7.72601e-06
6.74848e-08
-1.96755e-07
7.76263e-06
8.3557e-06
-3.85766e-09
8.35609e-06
-2.30812e-09
8.35384e-06
2.51278e-09
8.35546e-06
-1.30604e-08
8.35709e-06
2.15529e-08
8.35642e-06
8.96578e-09
8.35327e-06
-3.33585e-08
8.35348e-06
9.38989e-09
8.35184e-06
6.46938e-09
8.35152e-06
-1.2859e-08
8.3513e-06
1.66146e-08
8.3463e-06
1.78728e-09
8.34541e-06
6.5131e-09
8.33529e-06
2.77636e-08
8.31624e-06
4.71194e-08
8.30007e-06
8.90247e-08
8.29349e-06
1.25393e-07
8.31163e-06
1.12157e-07
8.37482e-06
4.29976e-09
-1.98214e-07
8.37627e-06
9.02254e-06
-2.74674e-09
9.02392e-06
-3.69439e-09
9.02116e-06
5.27438e-09
9.02126e-06
-1.31584e-08
9.02538e-06
1.74366e-08
9.02365e-06
1.06935e-08
9.01939e-06
-2.91046e-08
9.0211e-06
7.68578e-09
9.01962e-06
7.94975e-09
9.01741e-06
-1.0651e-08
9.01737e-06
1.66557e-08
9.01136e-06
7.79726e-09
9.00765e-06
1.02226e-08
8.99504e-06
4.03723e-08
8.97658e-06
6.55819e-08
8.96693e-06
9.86745e-08
8.97272e-06
1.19603e-07
9.00518e-06
7.96895e-08
9.04404e-06
-3.45568e-08
-1.90362e-07
9.03619e-06
9.74269e-06
-1.33273e-09
9.74502e-06
-6.02312e-09
9.74195e-06
8.34096e-09
9.7405e-06
-1.17037e-08
9.74656e-06
1.13693e-08
9.74439e-06
1.28639e-08
9.73907e-06
-2.37823e-08
9.74149e-06
5.26581e-09
9.7402e-06
9.24384e-09
9.73657e-06
-7.02851e-09
9.73642e-06
1.6811e-08
9.72888e-06
1.53369e-08
9.72161e-06
1.74868e-08
9.70906e-06
5.29231e-08
9.6946e-06
8.00458e-08
9.69187e-06
1.01404e-07
9.70827e-06
1.03204e-07
9.74342e-06
4.45372e-08
9.75609e-06
-4.72273e-08
-1.80438e-07
9.74617e-06
1.05207e-05
3.0539e-11
1.05232e-05
-8.46527e-09
1.05206e-05
1.08903e-08
1.05179e-05
-8.98685e-09
1.05241e-05
5.16679e-09
1.05227e-05
1.42884e-08
1.05168e-05
-1.79074e-08
1.0519e-05
3.04596e-09
1.05177e-05
1.0546e-08
1.05133e-05
-2.63465e-09
1.05121e-05
1.80586e-08
1.05033e-05
2.41359e-08
1.04935e-05
2.73066e-08
1.04836e-05
6.27901e-08
1.04747e-05
8.89314e-08
1.04782e-05
9.78618e-08
1.05012e-05
8.02939e-08
1.0526e-05
1.97204e-08
1.05243e-05
-4.55905e-08
-1.69104e-07
1.0513e-05
1.13612e-05
9.63197e-10
1.13626e-05
-9.84126e-09
1.13618e-05
1.17023e-08
1.1358e-05
-5.14832e-09
1.13624e-05
7.15189e-10
1.13631e-05
1.36511e-08
1.13577e-05
-1.25087e-08
1.13586e-05
2.09172e-09
1.13566e-05
1.25952e-08
1.13517e-05
2.24719e-09
1.13493e-05
2.03872e-08
1.13405e-05
3.29693e-08
1.13295e-05
3.82919e-08
1.13228e-05
6.94722e-08
1.13195e-05
9.22567e-08
1.13281e-05
8.9245e-08
1.13509e-05
5.75779e-08
1.1363e-05
7.60083e-09
1.13559e-05
-3.85464e-08
-1.57184e-07
1.1344e-05
1.22688e-05
1.46021e-09
1.22686e-05
-9.65151e-09
1.22703e-05
1.00442e-08
1.22656e-05
-4.79001e-10
1.22674e-05
-1.09405e-09
1.22705e-05
1.05713e-08
1.22662e-05
-8.15925e-09
1.22649e-05
3.40054e-09
1.22617e-05
1.57451e-08
1.22568e-05
7.20408e-09
1.2254e-05
2.31825e-08
1.22457e-05
4.12759e-08
1.22345e-05
4.94721e-08
1.22307e-05
7.32389e-08
1.22334e-05
8.95222e-08
1.22458e-05
7.68981e-08
1.22623e-05
4.10712e-08
1.22656e-05
4.33557e-09
1.22557e-05
-2.86778e-08
-1.46696e-07
1.22452e-05
1.32487e-05
1.71974e-09
1.32474e-05
-8.41481e-09
1.3251e-05
6.46465e-09
1.32462e-05
4.30866e-09
1.32455e-05
-3.31504e-10
1.32498e-05
6.27707e-09
1.32464e-05
-4.80214e-09
1.32433e-05
6.54609e-09
1.32397e-05
1.93426e-08
1.32346e-05
1.22333e-08
1.32311e-05
2.66787e-08
1.32236e-05
4.88246e-08
1.32142e-05
5.88693e-08
1.3214e-05
7.34082e-08
1.32222e-05
8.13088e-08
1.32347e-05
6.44629e-08
1.32423e-05
3.34684e-08
1.32397e-05
6.92587e-09
1.32285e-05
-1.74905e-08
-1.39762e-07
1.32216e-05
1.43068e-05
1.64045e-09
1.43051e-05
-6.67699e-09
1.43089e-05
2.67282e-09
1.43051e-05
8.06705e-09
1.43026e-05
2.14076e-09
1.43062e-05
2.67221e-09
1.43039e-05
-2.42339e-09
1.43005e-05
9.87428e-09
1.4297e-05
2.28758e-08
1.4291e-05
1.81962e-08
1.42863e-05
3.14114e-08
1.42806e-05
5.45593e-08
1.42751e-05
6.43205e-08
1.42782e-05
7.03264e-08
1.42883e-05
7.12511e-08
1.42969e-05
5.58572e-08
1.42974e-05
3.29655e-08
1.4292e-05
1.23227e-08
1.4283e-05
-8.56639e-09
-1.3811e-07
1.42814e-05
1.54496e-05
1.00345e-09
1.54473e-05
-4.32108e-09
1.54498e-05
1.16101e-10
1.54485e-05
9.37843e-09
1.54457e-05
4.98462e-09
1.5447e-05
1.40197e-09
1.54451e-05
-5.96035e-10
1.54427e-05
1.23296e-08
1.54391e-05
2.64088e-08
1.54319e-05
2.54055e-08
1.54264e-05
3.69152e-08
1.54235e-05
5.7478e-08
1.54224e-05
6.54256e-08
1.54271e-05
6.56422e-08
1.54356e-05
6.27224e-08
1.54401e-05
5.13389e-08
1.5438e-05
3.512e-08
1.54326e-05
1.767e-08
1.54276e-05
-3.53487e-09
-1.40442e-07
1.54299e-05
1.66834e-05
5.44808e-11
1.66805e-05
-1.45942e-09
1.66818e-05
-1.10406e-09
1.66834e-05
7.76882e-09
1.66809e-05
7.50894e-09
1.66788e-05
3.41299e-09
1.66766e-05
1.59948e-09
1.66753e-05
1.36531e-08
1.66724e-05
2.9322e-08
1.66651e-05
3.26877e-08
1.66598e-05
4.22088e-08
1.66595e-05
5.78224e-08
1.66615e-05
6.33907e-08
1.66664e-05
6.07286e-08
1.66726e-05
5.66022e-08
1.66746e-05
4.9311e-08
1.66719e-05
3.77983e-08
1.66672e-05
2.23674e-08
1.66648e-05
-1.17573e-09
-1.43681e-07
1.66681e-05
1.80151e-05
-6.61907e-10
1.80128e-05
9.00842e-10
1.8013e-05
-1.36889e-09
1.8016e-05
4.78531e-09
1.80138e-05
9.70728e-09
1.80094e-05
7.85377e-09
1.80066e-05
4.34317e-09
1.80064e-05
1.3831e-08
1.80049e-05
3.0853e-08
1.79987e-05
3.8864e-08
1.7994e-05
4.69183e-08
1.79949e-05
5.69953e-08
1.79983e-05
5.99306e-08
1.80026e-05
5.63956e-08
1.80065e-05
5.27523e-08
1.8007e-05
4.88209e-08
1.8004e-05
4.07668e-08
1.80008e-05
2.55378e-08
1.80014e-05
-1.71871e-09
-1.471e-07
1.80048e-05
1.94529e-05
-9.16602e-10
1.9452e-05
1.88348e-09
1.94511e-05
-5.24202e-10
1.94532e-05
2.65444e-09
1.9452e-05
1.09318e-08
1.94478e-05
1.20964e-08
1.94447e-05
7.44487e-09
1.94444e-05
1.41401e-08
1.94436e-05
3.16429e-08
1.94389e-05
4.35518e-08
1.94352e-05
5.06247e-08
1.94364e-05
5.57871e-08
1.94402e-05
5.61237e-08
1.94438e-05
5.28022e-08
1.9446e-05
5.05085e-08
1.94461e-05
4.87886e-08
1.94446e-05
4.22769e-08
1.94451e-05
2.50068e-08
1.94494e-05
-6.00129e-09
-1.50114e-07
1.94524e-05
2.10057e-05
-8.21746e-10
2.10059e-05
1.70538e-09
2.10039e-05
1.41852e-09
2.10045e-05
2.13635e-09
2.10051e-05
1.02648e-08
2.10029e-05
1.43707e-08
2.09987e-05
1.16042e-08
2.09962e-05
1.66341e-08
2.09954e-05
3.24846e-08
2.09933e-05
4.56214e-08
2.09923e-05
5.16505e-08
2.09943e-05
5.37766e-08
2.09976e-05
5.27636e-08
2.10001e-05
5.03024e-08
2.10013e-05
4.93828e-08
2.1002e-05
4.80329e-08
2.10039e-05
4.04283e-08
2.1008e-05
2.09019e-08
2.10133e-05
-1.12975e-08
-1.49788e-07
2.10129e-05
2.26826e-05
-4.77146e-10
2.26832e-05
1.12093e-09
2.26811e-05
3.53123e-09
2.26805e-05
2.71477e-09
2.26824e-05
8.3386e-09
2.26815e-05
1.52424e-08
2.2676e-05
1.71146e-08
2.26715e-05
2.11309e-08
2.26716e-05
3.24333e-08
2.26735e-05
4.36854e-08
2.26758e-05
4.93226e-08
2.26778e-05
5.17747e-08
2.2679e-05
5.15916e-08
2.26794e-05
4.99096e-08
2.268e-05
4.87681e-08
2.26827e-05
4.53222e-08
2.26879e-05
3.52213e-08
2.26936e-05
1.52276e-08
2.26972e-05
-1.48936e-08
-1.4544e-07
2.26929e-05
2.44934e-05
5.17789e-11
2.44939e-05
6.03493e-10
2.44927e-05
4.78622e-09
2.44914e-05
4.0282e-09
2.44926e-05
7.06833e-09
2.44922e-05
1.56832e-08
2.44873e-05
2.20011e-08
2.44834e-05
2.50742e-08
2.44849e-05
3.09059e-08
2.44893e-05
3.92818e-08
2.44924e-05
4.62566e-08
2.44926e-05
5.15763e-08
2.44914e-05
5.2763e-08
2.4491e-05
5.02683e-08
2.44937e-05
4.61057e-08
2.45e-05
3.89983e-08
2.4508e-05
2.7286e-08
2.45141e-05
9.08457e-09
2.4516e-05
-1.67566e-08
-1.38887e-07
2.45094e-05
2.6449e-05
5.85292e-10
2.64493e-05
3.78087e-10
2.6449e-05
5.03737e-09
2.64471e-05
5.94581e-09
2.64467e-05
7.43291e-09
2.64469e-05
1.54624e-08
2.64451e-05
2.38926e-08
2.6443e-05
2.71444e-08
2.64441e-05
2.97976e-08
2.64472e-05
3.61256e-08
2.64489e-05
4.46344e-08
2.64489e-05
5.1577e-08
2.64493e-05
5.23564e-08
2.64521e-05
4.7396e-08
2.64589e-05
3.93677e-08
2.64679e-05
3.00261e-08
2.64758e-05
1.93181e-08
2.64802e-05
4.71964e-09
2.64797e-05
-1.62373e-08
-1.29785e-07
2.64706e-05
2.8561e-05
9.15992e-10
2.85607e-05
6.46389e-10
2.8561e-05
4.77295e-09
2.85591e-05
7.86502e-09
2.85577e-05
8.76923e-09
2.85588e-05
1.43617e-08
2.85597e-05
2.29802e-08
2.85586e-05
2.82559e-08
2.85578e-05
3.06543e-08
2.85588e-05
3.5105e-08
2.8561e-05
4.243e-08
2.85649e-05
4.76596e-08
2.85701e-05
4.72051e-08
2.85765e-05
4.09634e-08
2.85837e-05
3.21561e-08
2.859e-05
2.37293e-08
2.85937e-05
1.55795e-08
2.8594e-05
4.47939e-09
2.85908e-05
-1.30974e-08
-1.19835e-07
2.85809e-05
3.08416e-05
9.79331e-10
3.08408e-05
1.43091e-09
3.08412e-05
4.41639e-09
3.08401e-05
8.97729e-09
3.08387e-05
1.01174e-08
3.08399e-05
1.32345e-08
3.08417e-05
2.11635e-08
3.08412e-05
2.86927e-08
3.08402e-05
3.17298e-08
3.08416e-05
3.36191e-08
3.08468e-05
3.72658e-08
3.08544e-05
4.00295e-08
3.08614e-05
4.02344e-08
3.08665e-05
3.58608e-08
3.08693e-05
2.94082e-08
3.08705e-05
2.24442e-08
3.08712e-05
1.48912e-08
3.08717e-05
4.00673e-09
3.08718e-05
-1.32148e-08
-1.14686e-07
3.08667e-05
3.33042e-05
8.46456e-10
3.33032e-05
2.45605e-09
3.33035e-05
4.17223e-09
3.33034e-05
9.0465e-09
3.33024e-05
1.10861e-08
3.33028e-05
1.2839e-08
3.33047e-05
1.92659e-08
3.33062e-05
2.7158e-08
3.33075e-05
3.04728e-08
3.33108e-05
3.03698e-08
3.33169e-05
3.11164e-08
3.33236e-05
3.33587e-08
3.33283e-05
3.5496e-08
3.33305e-05
3.36749e-08
3.33314e-05
2.85055e-08
3.33336e-05
2.02592e-08
3.33383e-05
1.01716e-08
3.33448e-05
-2.44174e-09
3.33506e-05
-1.90454e-08
-1.12525e-07
3.33484e-05
3.59634e-05
6.18548e-10
3.59625e-05
3.35897e-09
3.59625e-05
4.15196e-09
3.59631e-05
8.42083e-09
3.59627e-05
1.14489e-08
3.59629e-05
1.27118e-08
3.59653e-05
1.68624e-08
3.59691e-05
2.328e-08
3.59727e-05
2.69347e-08
3.59763e-05
2.67238e-08
3.59807e-05
2.67961e-08
3.5985e-05
2.89929e-08
3.59894e-05
3.11287e-08
3.59936e-05
2.94738e-08
3.59989e-05
2.31805e-08
3.60059e-05
1.32486e-08
3.60138e-05
2.2519e-09
3.60205e-05
-9.08455e-09
3.60234e-05
-2.19118e-08
-1.04612e-07
3.60154e-05
3.88347e-05
3.77101e-10
3.88341e-05
3.91894e-09
3.8834e-05
4.32519e-09
3.88349e-05
7.46734e-09
3.88355e-05
1.08817e-08
3.88362e-05
1.19619e-08
3.88391e-05
1.39517e-08
3.8844e-05
1.84637e-08
3.88485e-05
2.24344e-08
3.88522e-05
2.30322e-08
3.88561e-05
2.28907e-08
3.88617e-05
2.33729e-08
3.88693e-05
2.35215e-08
3.88775e-05
2.1238e-08
3.88851e-05
1.56096e-08
3.88902e-05
8.11369e-09
3.88922e-05
2.96712e-10
3.88909e-05
-7.82121e-09
3.88874e-05
-1.83732e-08
-9.5585e-08
3.88784e-05
4.19352e-05
1.77123e-10
4.19351e-05
4.06815e-09
4.19349e-05
4.46679e-09
4.19361e-05
6.32969e-09
4.19376e-05
9.34182e-09
4.19392e-05
1.03479e-08
4.19422e-05
1.10256e-08
4.19469e-05
1.3738e-08
4.19523e-05
1.7013e-08
4.19577e-05
1.76653e-08
4.1964e-05
1.65901e-08
4.19722e-05
1.51431e-08
4.19812e-05
1.45518e-08
4.19885e-05
1.38941e-08
4.1992e-05
1.21519e-08
4.19913e-05
8.80015e-09
4.19885e-05
3.11732e-09
4.19866e-05
-5.94731e-09
4.19881e-05
-1.98304e-08
-9.62287e-08
4.19887e-05
4.52833e-05
3.54765e-11
4.52836e-05
3.81269e-09
4.52837e-05
4.30844e-09
4.5285e-05
5.05563e-09
4.52872e-05
7.16868e-09
4.52894e-05
8.06443e-09
4.52924e-05
8.02963e-09
4.52973e-05
8.8591e-09
4.53039e-05
1.03852e-08
4.53113e-05
1.02885e-08
4.53193e-05
8.56816e-09
4.53275e-05
6.97111e-09
4.53348e-05
7.24096e-09
4.53402e-05
8.52249e-09
4.53433e-05
9.0548e-09
4.53456e-05
6.51683e-09
4.53489e-05
-1.80629e-10
4.53543e-05
-1.13387e-08
4.53608e-05
-2.63725e-08
-9.70223e-08
4.53616e-05
4.88987e-05
-6.43458e-11
4.88993e-05
3.19554e-09
4.88999e-05
3.70311e-09
4.89013e-05
3.64366e-09
4.89038e-05
4.69449e-09
4.89067e-05
5.21664e-09
4.89101e-05
4.58359e-09
4.89152e-05
3.77583e-09
4.8922e-05
3.56678e-09
4.89296e-05
2.66873e-09
4.89373e-05
8.65153e-10
4.8945e-05
-7.20129e-10
4.89534e-05
-1.18322e-09
4.8963e-05
-1.01627e-09
4.89735e-05
-1.4715e-09
4.89838e-05
-3.78529e-09
4.89917e-05
-8.04539e-09
4.89948e-05
-1.44239e-08
4.89919e-05
-2.35263e-08
-8.36959e-08
4.89786e-05
5.28028e-05
-1.41277e-10
5.28037e-05
2.27128e-09
5.28048e-05
2.62766e-09
5.28064e-05
2.01776e-09
5.2809e-05
2.06398e-09
5.28123e-05
1.95696e-09
5.2816e-05
8.43257e-10
5.28207e-05
-8.81397e-10
5.28266e-05
-2.31075e-09
5.28334e-05
-4.13589e-09
5.2841e-05
-6.7378e-09
5.28503e-05
-1.00214e-08
5.28622e-05
-1.31427e-08
5.28766e-05
-1.53847e-08
5.28914e-05
-1.62313e-08
5.29031e-05
-1.55021e-08
5.29087e-05
-1.3664e-08
5.29069e-05
-1.2644e-08
5.28992e-05
-1.58353e-08
-6.43473e-08
5.28799e-05
5.70186e-05
-1.95951e-10
5.70198e-05
1.07639e-09
5.70213e-05
1.12779e-09
5.70232e-05
1.22791e-10
5.70259e-05
-6.22077e-10
5.70292e-05
-1.37237e-09
5.70328e-05
-2.75257e-09
5.70368e-05
-4.88721e-09
5.70417e-05
-7.23581e-09
5.70477e-05
-1.01702e-08
5.70551e-05
-1.40978e-08
5.70642e-05
-1.91176e-08
5.70752e-05
-2.4095e-08
5.70877e-05
-2.79628e-08
5.71012e-05
-2.97102e-08
5.71149e-05
-2.92165e-08
5.71282e-05
-2.69034e-08
5.71396e-05
-2.41168e-08
5.71469e-05
-2.31187e-08
-4.84285e-08
5.7131e-05
6.15709e-05
-2.15447e-10
6.15724e-05
-3.74203e-10
6.15742e-05
-7.07263e-10
6.15763e-05
-1.98813e-09
6.1579e-05
-3.26122e-09
6.15821e-05
-4.51545e-09
6.15855e-05
-6.10721e-09
6.1589e-05
-8.4462e-09
6.1593e-05
-1.12431e-08
6.15975e-05
-1.4667e-08
6.16024e-05
-1.89431e-08
6.16075e-05
-2.42164e-08
6.16136e-05
-3.01873e-08
6.16223e-05
-3.67132e-08
6.1636e-05
-4.33908e-08
6.16564e-05
-4.95722e-08
6.1683e-05
-5.35321e-08
6.1712e-05
-5.31048e-08
6.17355e-05
-4.66224e-08
-4.04748e-08
6.17275e-05
6.64868e-05
-1.86119e-10
6.64885e-05
-2.07013e-09
6.64906e-05
-2.79713e-09
6.64928e-05
-4.20732e-09
6.64954e-05
-5.84092e-09
6.64982e-05
-7.39236e-09
6.65014e-05
-9.23263e-09
6.65043e-05
-1.14106e-08
6.65072e-05
-1.40996e-08
6.65096e-05
-1.70709e-08
6.65116e-05
-2.09133e-08
6.65131e-05
-2.57534e-08
6.65153e-05
-3.2411e-08
6.65194e-05
-4.08053e-08
6.65273e-05
-5.13014e-08
6.65407e-05
-6.29894e-08
6.6562e-05
-7.48401e-08
6.65928e-05
-8.39017e-08
6.66324e-05
-8.61839e-08
-9.54284e-08
6.66874e-05
7.17951e-05
-1.1413e-10
7.17971e-05
-4.03394e-09
7.17993e-05
-5.02399e-09
7.18016e-05
-6.4899e-09
7.18041e-05
-8.40509e-09
7.18068e-05
-1.0084e-08
7.18096e-05
-1.20582e-08
7.18121e-05
-1.38541e-08
7.18142e-05
-1.62068e-08
7.18155e-05
-1.84083e-08
7.18161e-05
-2.14997e-08
7.18153e-05
-2.49653e-08
7.18129e-05
-2.99974e-08
7.18084e-05
-3.62803e-08
7.18027e-05
-4.56047e-08
7.17984e-05
-5.86771e-08
7.18016e-05
-7.804e-08
7.18217e-05
-1.04009e-07
7.18713e-05
-1.3584e-07
-2.9984e-07
7.20758e-05
7.75273e-05
7.75296e-05
7.75318e-05
7.75341e-05
7.75367e-05
7.75395e-05
7.75423e-05
7.75448e-05
7.75467e-05
7.75477e-05
7.75472e-05
7.75446e-05
7.75392e-05
7.75306e-05
7.75181e-05
7.75021e-05
7.74858e-05
7.74806e-05
7.75167e-05
7.78471e-05
3.7515e-06
8.83168e-08
3.67343e-06
7.80672e-08
3.58353e-06
8.9908e-08
3.48863e-06
9.48975e-08
3.39433e-06
9.43017e-08
3.29679e-06
9.75396e-08
3.19517e-06
1.01621e-07
3.09402e-06
1.01145e-07
2.99133e-06
1.02691e-07
2.88509e-06
1.06245e-07
2.77597e-06
1.09111e-07
2.66346e-06
1.12515e-07
2.54722e-06
1.16235e-07
2.42789e-06
1.19339e-07
2.3075e-06
1.20381e-07
2.18769e-06
1.19819e-07
2.06971e-06
1.17978e-07
1.95524e-06
1.14467e-07
1.84377e-06
1.11475e-07
1.73122e-06
1.12544e-07
1.61289e-06
1.18332e-07
1.49018e-06
1.22708e-07
1.37065e-06
1.19532e-07
1.26112e-06
1.09535e-07
1.16476e-06
9.63555e-08
1.08176e-06
8.30048e-08
1.01395e-06
6.78039e-08
9.65307e-07
4.86446e-08
9.3345e-07
3.18577e-08
9.10469e-07
2.29803e-08
8.92779e-07
1.76905e-08
8.81508e-07
1.12712e-08
8.75833e-07
5.67464e-09
8.7229e-07
3.54263e-09
8.68831e-07
3.45969e-09
8.65578e-07
3.25268e-09
8.6285e-07
2.7276e-09
8.60125e-07
2.72531e-09
8.5601e-07
4.11478e-09
8.50102e-07
5.90867e-09
8.43845e-07
6.2567e-09
8.37612e-07
6.23319e-09
8.30774e-07
6.83731e-09
8.24737e-07
6.03742e-09
8.20767e-07
3.96971e-09
8.17729e-07
3.03784e-09
8.15193e-07
2.53601e-09
8.13735e-07
1.45835e-09
8.12152e-07
1.58337e-09
8.09446e-07
2.70576e-09
8.07286e-07
2.15986e-09
8.06964e-07
3.22154e-10
8.07241e-07
-2.76715e-10
8.06899e-07
3.41961e-10
8.06471e-07
4.27921e-10
8.06625e-07
-1.54085e-10
8.07159e-07
-5.33782e-10
8.07676e-07
-5.17297e-10
8.08196e-07
-5.20076e-10
8.08755e-07
-5.59424e-10
8.09316e-07
-5.60821e-10
8.0976e-07
-4.43544e-10
8.10122e-07
-3.62155e-10
8.10383e-07
-2.60598e-10
8.10607e-07
-2.24185e-10
8.10761e-07
-1.53832e-10
8.10901e-07
-1.40266e-10
8.10997e-07
-9.59539e-11
8.11081e-07
-8.41843e-11
8.11142e-07
-6.04983e-11
8.11177e-07
-3.58235e-11
8.11219e-07
-4.15503e-11
8.11218e-07
7.17966e-13
8.11256e-07
-3.78821e-11
8.11234e-07
2.22843e-11
8.11273e-07
-3.8741e-11
8.11244e-07
2.82038e-11
8.11276e-07
-3.19526e-11
8.11258e-07
1.81176e-11
8.11271e-07
-1.30263e-11
8.11274e-07
-2.88051e-12
8.11264e-07
1.048e-11
8.11284e-07
-2.05244e-11
8.11262e-07
2.20226e-11
8.11281e-07
-1.87755e-11
8.11269e-07
1.17312e-11
8.11267e-07
2.53887e-12
8.11273e-07
-6.22475e-12
8.11253e-07
1.97703e-11
8.11254e-07
-6.02747e-13
8.1124e-07
1.3568e-11
8.11204e-07
3.64523e-11
8.11187e-07
1.64761e-11
8.11119e-07
6.81981e-11
8.11014e-07
1.0458e-10
8.10917e-07
9.77748e-11
8.10604e-07
3.12402e-10
8.10306e-07
2.98173e-10
8.09339e-07
9.67457e-10
3.2211e-09
4.14545e-06
7.6975e-08
4.16413e-06
5.93877e-08
4.16855e-06
8.54838e-08
4.16383e-06
9.96165e-08
4.1562e-06
1.01934e-07
4.14411e-06
1.09632e-07
4.12814e-06
1.17593e-07
4.11181e-06
1.17472e-07
4.09362e-06
1.20884e-07
4.07119e-06
1.28671e-07
4.04565e-06
1.34654e-07
4.01606e-06
1.421e-07
3.98124e-06
1.51057e-07
3.94207e-06
1.58508e-07
3.89813e-06
1.64328e-07
3.85055e-06
1.67395e-07
3.80055e-06
1.67978e-07
3.74776e-06
1.67252e-07
3.69334e-06
1.65898e-07
3.63662e-06
1.69266e-07
3.57418e-06
1.80767e-07
3.50612e-06
1.9077e-07
3.43566e-06
1.89993e-07
3.36487e-06
1.80324e-07
3.29648e-06
1.6475e-07
3.22978e-06
1.49696e-07
3.16398e-06
1.33606e-07
3.10557e-06
1.07053e-07
3.0544e-06
8.30277e-08
3.0042e-06
7.31861e-08
2.95719e-06
6.46984e-08
2.91583e-06
5.26304e-08
2.87801e-06
4.34903e-08
2.84298e-06
3.8582e-08
2.8089e-06
3.7532e-08
2.77511e-06
3.70417e-08
2.74426e-06
3.35853e-08
2.71568e-06
3.1297e-08
2.68674e-06
3.30558e-08
2.65845e-06
3.4199e-08
2.63187e-06
3.28395e-08
2.60571e-06
3.23975e-08
2.5804e-06
3.21481e-08
2.55766e-06
2.87696e-08
2.53716e-06
2.4473e-08
2.51833e-06
2.18694e-08
2.50229e-06
1.85791e-08
2.48892e-06
1.48202e-08
2.47624e-06
1.42663e-08
2.46397e-06
1.49785e-08
2.454e-06
1.21259e-08
2.44691e-06
7.41209e-09
2.4413e-06
5.33204e-09
2.43631e-06
5.3317e-09
2.43239e-06
4.35455e-09
2.4299e-06
2.33477e-09
2.42865e-06
7.15858e-10
2.42837e-06
-2.35017e-10
2.42895e-06
-1.10561e-09
2.43018e-06
-1.78794e-09
2.43174e-06
-2.11638e-09
2.4333e-06
-2.01154e-09
2.43475e-06
-1.8126e-09
2.436e-06
-1.50827e-09
2.43708e-06
-1.29895e-09
2.43796e-06
-1.0422e-09
2.43872e-06
-8.97435e-10
2.43933e-06
-7.02366e-10
2.43982e-06
-5.7538e-10
2.44018e-06
-4.23755e-10
2.44045e-06
-2.98603e-10
2.44063e-06
-2.23494e-10
2.44074e-06
-1.07238e-10
2.44082e-06
-1.22532e-10
2.44085e-06
-6.03208e-12
2.4409e-06
-8.65653e-11
2.44089e-06
3.26363e-11
2.44093e-06
-6.78306e-11
2.44091e-06
3.21514e-11
2.44094e-06
-4.10015e-11
2.44093e-06
1.02286e-11
2.44095e-06
-8.89099e-12
2.44094e-06
-1.02128e-11
2.44095e-06
8.07933e-12
2.44094e-06
-6.6949e-12
2.44095e-06
-2.31147e-12
2.44093e-06
2.13636e-11
2.44095e-06
-2.13009e-11
2.44092e-06
4.69946e-11
2.44093e-06
-1.23606e-11
2.44089e-06
5.49546e-11
2.4409e-06
3.41186e-11
2.44082e-06
9.26649e-11
2.4408e-06
8.652e-11
2.44063e-06
2.78322e-10
2.44057e-06
1.54549e-10
2.44017e-06
7.10236e-10
2.43984e-06
6.27775e-10
2.43904e-06
1.77353e-09
6.03368e-09
4.47988e-06
5.87625e-08
4.49844e-06
4.08251e-08
4.51067e-06
7.32574e-08
4.51518e-06
9.51044e-08
4.51592e-06
1.01193e-07
4.5148e-06
1.1075e-07
4.51347e-06
1.18927e-07
4.51315e-06
1.17791e-07
4.51315e-06
1.20881e-07
4.51257e-06
1.29258e-07
4.51173e-06
1.35493e-07
4.50981e-06
1.4402e-07
4.50588e-06
1.54988e-07
4.5006e-06
1.63779e-07
4.49301e-06
1.71922e-07
4.48322e-06
1.77185e-07
4.4721e-06
1.791e-07
4.45865e-06
1.807e-07
4.44381e-06
1.8074e-07
4.4287e-06
1.84371e-07
4.41208e-06
1.9739e-07
4.39376e-06
2.09089e-07
4.37453e-06
2.09223e-07
4.35381e-06
2.01042e-07
4.33223e-06
1.86337e-07
4.30965e-06
1.72271e-07
4.28498e-06
1.58278e-07
4.26133e-06
1.30704e-07
4.23956e-06
1.04793e-07
4.21651e-06
9.62413e-08
4.19322e-06
8.7986e-08
4.17115e-06
7.46968e-08
4.14898e-06
6.56687e-08
4.12697e-06
6.05856e-08
4.10519e-06
5.93137e-08
4.08302e-06
5.92149e-08
4.06206e-06
5.45432e-08
4.04266e-06
5.06944e-08
4.02264e-06
5.30821e-08
4.0019e-06
5.49339e-08
3.98164e-06
5.30951e-08
3.96116e-06
5.28872e-08
3.94047e-06
5.28306e-08
3.92127e-06
4.79707e-08
3.90349e-06
4.22528e-08
3.88621e-06
3.91483e-08
3.87023e-06
3.45671e-08
3.85592e-06
2.91225e-08
3.84202e-06
2.8173e-08
3.8283e-06
2.8697e-08
3.81618e-06
2.42477e-08
3.80606e-06
1.75304e-08
3.79701e-06
1.43752e-08
3.78865e-06
1.36999e-08
3.78138e-06
1.16196e-08
3.77545e-06
8.26345e-09
3.77069e-06
5.47502e-09
3.76698e-06
3.47373e-09
3.76433e-06
1.54571e-09
3.76266e-06
-1.19635e-10
3.76179e-06
-1.23831e-09
3.76148e-06
-1.70894e-09
3.7616e-06
-1.92638e-09
3.76204e-06
-1.9471e-09
3.76278e-06
-2.03858e-09
3.7638e-06
-2.06959e-09
3.76508e-06
-2.17439e-09
3.7665e-06
-2.12243e-09
3.76793e-06
-2.00589e-09
3.76923e-06
-1.72376e-09
3.77031e-06
-1.38091e-09
3.77114e-06
-1.04829e-09
3.77172e-06
-6.88071e-10
3.77211e-06
-5.08804e-10
3.77234e-06
-2.36305e-10
3.77248e-06
-2.35762e-10
3.77255e-06
-3.15739e-11
3.77261e-06
-1.3122e-10
3.77261e-06
3.14176e-11
3.77266e-06
-8.34391e-11
3.77263e-06
3.13073e-11
3.77267e-06
-4.44648e-11
3.77265e-06
1.28945e-11
3.77267e-06
-1.55623e-11
3.77266e-06
6.94575e-12
3.77267e-06
-1.03989e-11
3.77266e-06
2.75914e-11
3.77266e-06
-2.33846e-11
3.77264e-06
6.29896e-11
3.77266e-06
-2.24021e-11
3.77262e-06
9.46333e-11
3.77262e-06
2.5537e-11
3.77256e-06
1.52545e-10
3.77254e-06
1.14993e-10
3.77243e-06
3.7996e-10
3.77233e-06
2.55165e-10
3.77212e-06
9.19348e-10
3.77174e-06
1.01569e-09
3.77134e-06
2.16789e-09
7.59559e-09
4.84429e-06
3.14089e-08
4.85814e-06
2.69679e-08
4.8709e-06
6.05064e-08
4.87728e-06
8.8723e-08
4.8774e-06
1.01066e-07
4.87608e-06
1.12069e-07
4.87631e-06
1.187e-07
4.87706e-06
1.17039e-07
4.87791e-06
1.2003e-07
4.87984e-06
1.27327e-07
4.88254e-06
1.32802e-07
4.88485e-06
1.41709e-07
4.88652e-06
1.53317e-07
4.88816e-06
1.62142e-07
4.88901e-06
1.71068e-07
4.88883e-06
1.7736e-07
4.8884e-06
1.79535e-07
4.88688e-06
1.8222e-07
4.88468e-06
1.8294e-07
4.88315e-06
1.85898e-07
4.88206e-06
1.98482e-07
4.88143e-06
2.09723e-07
4.88123e-06
2.09421e-07
4.88032e-06
2.01958e-07
4.87824e-06
1.88415e-07
4.87502e-06
1.75485e-07
4.87022e-06
1.63081e-07
4.86471e-06
1.36217e-07
4.85918e-06
1.1032e-07
4.8529e-06
1.02522e-07
4.84628e-06
9.46051e-08
4.8395e-06
8.14764e-08
4.83164e-06
7.35274e-08
4.82322e-06
6.90105e-08
4.81473e-06
6.77966e-08
4.80579e-06
6.81545e-08
4.79726e-06
6.30755e-08
4.78981e-06
5.81447e-08
4.78237e-06
6.05203e-08
4.77455e-06
6.27555e-08
4.76685e-06
6.07965e-08
4.75875e-06
6.09928e-08
4.7499e-06
6.16764e-08
4.74124e-06
5.66325e-08
4.73316e-06
5.0335e-08
4.72527e-06
4.70372e-08
4.71775e-06
4.20795e-08
4.71081e-06
3.60657e-08
4.70393e-06
3.50556e-08
4.69698e-06
3.56497e-08
4.69053e-06
3.0693e-08
4.68481e-06
2.32559e-08
4.67947e-06
1.9714e-08
4.6744e-06
1.8762e-08
4.66982e-06
1.6204e-08
4.66581e-06
1.22712e-08
4.66232e-06
8.97003e-09
4.65932e-06
6.47047e-09
4.65684e-06
4.02126e-09
4.65489e-06
1.83341e-09
4.65341e-06
2.47748e-10
4.65234e-06
-6.46678e-10
4.65164e-06
-1.22354e-09
4.65127e-06
-1.57354e-09
4.65119e-06
-1.95868e-09
4.65142e-06
-2.30385e-09
4.65196e-06
-2.71072e-09
4.65279e-06
-2.95284e-09
4.65382e-06
-3.03882e-09
4.65496e-06
-2.86388e-09
4.65607e-06
-2.48779e-09
4.65706e-06
-2.03634e-09
4.65785e-06
-1.48066e-09
4.65845e-06
-1.10816e-09
4.65885e-06
-6.41545e-10
4.65913e-06
-5.08837e-10
4.65928e-06
-1.82221e-10
4.65938e-06
-2.35476e-10
4.65942e-06
-3.43532e-12
4.65946e-06
-1.25673e-10
4.65945e-06
3.5396e-11
4.65948e-06
-6.52736e-11
4.65947e-06
2.1951e-11
4.65947e-06
-2.16216e-11
4.65947e-06
7.81174e-12
4.65946e-06
-3.39699e-12
4.65947e-06
2.27372e-11
4.65946e-06
-1.24925e-11
4.65946e-06
6.45849e-11
4.65945e-06
-1.50928e-11
4.65944e-06
1.07623e-10
4.65942e-06
4.17745e-11
4.6594e-06
1.69287e-10
4.65935e-06
1.69503e-10
4.65932e-06
4.07584e-10
4.65919e-06
3.85161e-10
4.65913e-06
9.78128e-10
4.65876e-06
1.38904e-09
4.65866e-06
2.27105e-09
8.2013e-09
5.2398e-06
-3.16295e-09
5.24877e-06
1.8003e-08
5.25958e-06
4.96985e-08
5.26678e-06
8.15236e-08
5.26678e-06
1.01066e-07
5.26531e-06
1.1354e-07
5.26638e-06
1.17623e-07
5.26713e-06
1.16295e-07
5.26724e-06
1.19913e-07
5.26911e-06
1.25465e-07
5.27216e-06
1.29749e-07
5.2748e-06
1.39068e-07
5.27711e-06
1.51005e-07
5.27977e-06
1.59486e-07
5.28211e-06
1.68721e-07
5.28384e-06
1.75632e-07
5.28573e-06
1.77651e-07
5.28721e-06
1.80739e-07
5.28822e-06
1.81924e-07
5.28992e-06
1.842e-07
5.29252e-06
1.95887e-07
5.29601e-06
2.06232e-07
5.30012e-06
2.05312e-07
5.30385e-06
1.98226e-07
5.30639e-06
1.85875e-07
5.30777e-06
1.74101e-07
5.30817e-06
1.62679e-07
5.30752e-06
1.36867e-07
5.30617e-06