/*--------------------------------*- C++ -*----------------------------------*\
  =========                 |
  \\      /  F ield         | OpenFOAM: The Open Source CFD Toolbox
   \\    /   O peration     | Website:  https://openfoam.org
    \\  /    A nd           | Version:  6
     \\/     M anipulation  |
\*---------------------------------------------------------------------------*/
FoamFile
{
    version     2.0;
    format      ascii;
    class       volVectorField;
    location    "0.3";
    object      U;
}
// * * * * * * * * * * * * * * * * * * * * * * * * * * * * * * * * * * * * * //

dimensions      [0 1 -1 0 0 0 0];

internalField   nonuniform List<vector> 
4800
(
(0.960775 -0.000103212 0)
(1.03873 -2.98294e-05 0)
(0.964183 -4.97432e-06 0)
(1.03465 -0.000216248 0)
(0.966519 0.00064212 0)
(1.0329 0.000168559 0)
(0.96933 -0.00130373 0)
(1.0273 0.000432208 0)
(0.97431 -4.37669e-05 0)
(1.02517 -0.000312115 0)
(0.976335 0.00010152 0)
(1.02135 -0.000452695 0)
(0.977641 0.000308164 0)
(1.01751 0.000100174 0)
(0.979511 0.000708379 0)
(1.01543 0.00067297 0)
(0.981982 0.00073648 0)
(1.013 0.000926246 0)
(0.984564 0.000440057 0)
(1.01167 0.000742965 0)
(0.982994 -0.000106309 0)
(1.01459 -7.19168e-05 0)
(0.986831 -1.59083e-05 0)
(1.01089 -0.000188615 0)
(0.98925 0.000521629 0)
(1.0095 0.00020852 0)
(0.991743 -0.00128641 0)
(1.00507 0.000397918 0)
(0.995317 -0.000163506 0)
(1.00403 -0.000207498 0)
(0.996041 -4.50341e-05 0)
(1.00187 -0.000276993 0)
(0.996277 0.000401727 0)
(0.999715 0.000294806 0)
(0.996766 0.000733563 0)
(0.999437 0.000482081 0)
(0.99757 0.00055622 0)
(0.998839 0.000926384 0)
(0.9983 9.48769e-05 0)
(0.999025 0.00105496 0)
(0.996053 -6.94052e-05 0)
(1.00269 -0.000123036 0)
(0.997334 6.66691e-06 0)
(1.00129 -0.000181954 0)
(0.99783 0.000425 0)
(1.00151 0.000321877 0)
(0.998567 -0.00131106 0)
(0.999181 0.000314437 0)
(0.999377 -7.10443e-05 0)
(0.999678 -8.49205e-05 0)
(0.998525 -0.000238535 0)
(0.999012 -4.26887e-05 0)
(0.998172 0.000230742 0)
(0.998112 0.000717051 0)
(0.998106 0.000466913 0)
(0.998639 0.000398706 0)
(0.998496 0.00028169 0)
(0.998487 0.000781915 0)
(0.998775 6.43686e-05 0)
(0.998907 0.00112852 0)
(0.99947 -5.45994e-05 0)
(1.00022 -0.000131443 0)
(0.999587 3.81525e-05 0)
(0.999787 -0.000175654 0)
(0.999411 0.000426033 0)
(1.00046 0.000349215 0)
(0.999634 -0.00130186 0)
(0.998681 0.000393439 0)
(0.999653 -8.09769e-05 0)
(0.999192 -6.90843e-05 0)
(0.998604 -0.00014106 0)
(0.998827 -0.00019634 0)
(0.998368 0.00033174 0)
(0.998295 0.000913041 0)
(0.99841 0.00034544 0)
(0.998903 0.000571597 0)
(0.998939 -8.98607e-05 0)
(0.998769 0.000687099 0)
(0.999164 0.0002518 0)
(0.999264 0.000915568 0)
(0.999989 -7.28875e-05 0)
(0.99993 -7.10028e-05 0)
(0.999892 2.35053e-05 0)
(0.999706 -0.000113938 0)
(0.999644 0.000388588 0)
(1.00042 0.000281712 0)
(0.999767 -0.00100794 0)
(0.998738 0.000181159 0)
(0.999635 -0.000105602 0)
(0.999149 0.000116119 0)
(0.998598 -8.07053e-05 0)
(0.998879 -0.00034445 0)
(0.998491 0.000517099 0)
(0.998422 0.000622988 0)
(0.998604 0.000519309 0)
(0.999029 0.000628615 0)
(0.999207 -0.000331327 0)
(0.999046 0.000555404 0)
(0.999399 0.000443755 0)
(0.999565 0.000546074 0)
(1.00004 -7.8801e-05 0)
(0.999913 -2.4111e-05 0)
(0.999916 -2.56043e-05 0)
(0.999725 -7.19077e-05 0)
(0.999685 0.000343205 0)
(1.00041 0.000225085 0)
(0.999755 -0.00080937 0)
(0.998794 -9.23982e-05 0)
(0.999644 0.000153233 0)
(0.999127 -0.000100263 0)
(0.998566 8.82923e-05 0)
(0.998944 -0.000320311 0)
(0.998547 0.000372652 0)
(0.99847 0.000288745 0)
(0.998701 0.000804368 0)
(0.998992 0.000575822 0)
(0.999298 -0.000162301 0)
(0.999231 0.000469239 0)
(0.999458 0.00053254 0)
(0.999682 0.00025446 0)
(1.00004 -6.16579e-05 0)
(0.999916 -3.31082e-05 0)
(0.999912 -8.92314e-05 0)
(0.999748 -2.88033e-05 0)
(0.999693 0.000296263 0)
(1.00037 9.61389e-05 0)
(0.999744 -0.000644386 0)
(0.998855 -3.8757e-05 0)
(0.999623 4.90804e-05 0)
(0.999128 -0.000353539 0)
(0.998573 0.000561574 0)
(0.998951 -0.000346516 0)
(0.998586 0.00016146 0)
(0.998545 0.000323999 0)
(0.998744 0.000763511 0)
(0.998912 0.000556116 0)
(0.999311 0.000253739 0)
(0.999314 0.000444837 0)
(0.999429 0.000485467 0)
(0.999675 0.000165078 0)
(1.00003 -4.13349e-05 0)
(0.99992 -6.88329e-05 0)
(0.99991 -0.000106459 0)
(0.999771 8.21403e-06 0)
(0.999695 0.000235696 0)
(1.00034 0.00011398 0)
(0.999745 -0.000550202 0)
(0.998883 2.76891e-05 0)
(0.999603 -0.000137119 0)
(0.999203 -0.000132163 0)
(0.99856 0.000634773 0)
(0.998903 -0.00039156 0)
(0.998658 0.000213662 0)
(0.998593 0.000444198 0)
(0.998759 0.000335172 0)
(0.998908 0.000762224 0)
(0.999301 0.000635138 0)
(0.999321 0.000509162 0)
(0.999396 0.000493373 0)
(0.999664 0.00042941 0)
(1.00003 -3.98332e-05 0)
(0.999925 -7.30519e-05 0)
(0.999911 -3.12717e-05 0)
(0.999794 -3.30223e-05 0)
(0.999701 0.000295327 0)
(1.00029 0.000143363 0)
(0.999744 -0.000645639 0)
(0.998919 0.000186802 0)
(0.999597 -7.55481e-06 0)
(0.999246 -0.000187593 0)
(0.998518 0.00031843 0)
(0.998904 -0.000100186 0)
(0.998733 0.000422792 0)
(0.998567 0.000368767 0)
(0.998819 0.00011312 0)
(0.99899 0.000984497 0)
(0.999245 0.000792096 0)
(0.999286 0.000494034 0)
(0.999408 0.000692563 0)
(0.999715 0.000890238 0)
(1.00002 -6.07901e-05 0)
(0.999932 -1.21858e-06 0)
(0.999904 5.22132e-05 0)
(0.999815 -0.000173978 0)
(0.999702 0.000414691 0)
(1.00023 6.70508e-05 0)
(0.999759 -0.000687418 0)
(0.998964 0.00032636 0)
(0.999536 4.9209e-05 0)
(0.999262 -0.000465908 0)
(0.998561 0.000362188 0)
(0.998938 0.000199196 0)
(0.998732 0.000339092 0)
(0.99852 0.000308409 0)
(0.998908 0.000298367 0)
(0.999067 0.00089887 0)
(0.999157 0.000836688 0)
(0.999301 0.000622078 0)
(0.999528 0.001174 0)
(0.999803 0.00145391 0)
(1.00001 -7.50585e-05 0)
(0.999936 9.3143e-05 0)
(0.999882 9.77105e-06 0)
(0.999836 -0.000296779 0)
(0.99971 0.00047223 0)
(1.00016 3.18305e-05 0)
(0.999775 -0.000691365 0)
(0.999006 0.000278165 0)
(0.999469 0.000137753 0)
(0.999308 -0.000383468 0)
(0.998621 0.000442549 0)
(0.998902 7.088e-05 0)
(0.998743 0.000208915 0)
(0.998559 0.000700164 0)
(0.998965 0.000665902 0)
(0.999129 0.000732472 0)
(0.999158 0.00103079 0)
(0.999412 0.00114813 0)
(0.999699 0.00166087 0)
(0.999924 0.0019503 0)
(1.00001 -4.0907e-05 0)
(0.999932 6.63354e-05 0)
(0.999855 -7.96339e-05 0)
(0.999863 -0.000280944 0)
(0.999728 0.000426955 0)
(1.00008 9.21236e-05 0)
(0.999789 -0.000628589 0)
(0.999081 0.000242398 0)
(0.999427 0.000317489 0)
(0.999319 -0.000258694 0)
(0.998635 0.000283222 0)
(0.998893 5.98351e-05 0)
(0.998881 0.000401601 0)
(0.998633 0.00105298 0)
(0.998904 0.00075783 0)
(0.999182 0.000657429 0)
(0.999285 0.00132681 0)
(0.999532 0.00170744 0)
(0.999821 0.00194324 0)
(1.00013 0.00232691 0)
(1.00001 9.30648e-06 0)
(0.999925 -8.46628e-05 0)
(0.999845 -8.02078e-06 0)
(0.999893 -0.000133841 0)
(0.999754 0.000279317 0)
(1.00001 0.000220867 0)
(0.999803 -0.00047054 0)
(0.999155 0.000151128 0)
(0.99937 0.000240704 0)
(0.999304 -0.000219713 0)
(0.998681 0.000313043 0)
(0.99893 0.000332638 0)
(0.998987 0.000342172 0)
(0.998636 0.000844607 0)
(0.998835 0.00081116 0)
(0.999322 0.00111188 0)
(0.999512 0.00185329 0)
(0.99964 0.00220226 0)
(0.999944 0.00232342 0)
(1.00047 0.00287436 0)
(1.00001 7.54533e-06 0)
(0.999931 -0.000166268 0)
(0.999857 0.000248351 0)
(0.999897 -5.61468e-05 0)
(0.999777 1.51136e-05 0)
(0.999959 0.000279704 0)
(0.999784 -0.000325783 0)
(0.999189 -5.62978e-05 0)
(0.999339 0.000103267 0)
(0.999339 -7.80731e-06 0)
(0.998746 0.000537316 0)
(0.998885 0.000457052 0)
(0.999008 0.000103371 0)
(0.998753 0.000796762 0)
(0.998987 0.00140027 0)
(0.999541 0.00189813 0)
(0.999678 0.00226191 0)
(0.999709 0.00245918 0)
(1.00012 0.00270533 0)
(1.00087 0.00340425 0)
(1.00001 -2.16543e-05 0)
(0.999956 -8.05834e-05 0)
(0.999859 0.000364321 0)
(0.999854 -0.000192155 0)
(0.999801 -0.00021591 0)
(0.999941 0.000325123 0)
(0.999744 -0.000141758 0)
(0.999217 -0.000106524 0)
(0.999373 0.000169778 0)
(0.999401 0.000199487 0)
(0.998774 0.000591793 0)
(0.998797 0.000495173 0)
(0.999089 0.000243946 0)
(0.999038 0.00107565 0)
(0.999207 0.00183706 0)
(0.999621 0.00206718 0)
(0.999726 0.00221422 0)
(0.999824 0.0026757 0)
(1.0004 0.00319973 0)
(1.00127 0.0038831 0)
(1 -6.55143e-07 0)
(0.999978 -2.7373e-05 0)
(0.999835 0.000161805 0)
(0.999808 -0.000241526 0)
(0.999862 -0.000108374 0)
(0.99996 0.000396005 0)
(0.999704 -2.35488e-05 0)
(0.999243 -4.93351e-05 0)
(0.999408 0.00022559 0)
(0.999435 0.000152225 0)
(0.998813 0.000470362 0)
(0.998775 0.000658053 0)
(0.999199 0.000614765 0)
(0.999283 0.00119869 0)
(0.999339 0.0018188 0)
(0.999673 0.00204584 0)
(0.999951 0.00245198 0)
(1.00017 0.00329671 0)
(1.00074 0.00388584 0)
(1.00154 0.00418421 0)
(1.00001 4.17896e-05 0)
(0.999979 -0.000124415 0)
(0.999831 -2.05445e-05 0)
(0.999822 6.35261e-05 0)
(0.999921 0.000133177 0)
(0.999951 0.000172122 0)
(0.999662 -0.000161773 0)
(0.999272 2.77423e-05 0)
(0.999421 0.000304894 0)
(0.99946 0.000113454 0)
(0.998921 0.000421872 0)
(0.99883 0.000895924 0)
(0.999276 0.00100468 0)
(0.999469 0.00135694 0)
(0.999539 0.00193816 0)
(0.999892 0.00237463 0)
(1.00033 0.00285879 0)
(1.00055 0.00352777 0)
(1.00088 0.0039313 0)
(1.00151 0.00389215 0)
(1 3.54008e-05 0)
(0.999982 -0.000179835 0)
(0.999881 4.59449e-05 0)
(0.99985 0.000338697 0)
(0.999891 4.86274e-05 0)
(0.999903 -0.000243166 0)
(0.999687 -0.000194207 0)
(0.99936 0.000326438 0)
(0.999428 0.000543326 0)
(0.999469 0.000184001 0)
(0.999063 0.000388186 0)
(0.998957 0.00102508 0)
(0.999374 0.00133186 0)
(0.999648 0.00160771 0)
(0.999779 0.00206959 0)
(1.0001 0.00245623 0)
(1.00054 0.00275602 0)
(1.00075 0.00309458 0)
(1.00094 0.00351605 0)
(1.00142 0.00360427 0)
(1 4.76093e-06 0)
(0.999999 -8.87011e-05 0)
(0.999935 9.93539e-05 0)
(0.99983 0.000228552 0)
(0.999814 -0.000128743 0)
(0.999912 -0.000241138 0)
(0.999814 9.2985e-05 0)
(0.999465 0.000549127 0)
(0.999377 0.000558747 0)
(0.999421 0.000144765 0)
(0.999214 0.000344448 0)
(0.99917 0.00108263 0)
(0.999514 0.0015261 0)
(0.999782 0.00175631 0)
(0.999936 0.00206649 0)
(1.00023 0.00236958 0)
(1.00068 0.00265857 0)
(1.001 0.00295055 0)
(1.00121 0.00338854 0)
(1.00145 0.00350107 0)
(0.999999 -2.254e-06 0)
(1.00001 2.58951e-06 0)
(0.999949 -1.89537e-05 0)
(0.999811 3.02553e-05 0)
(0.999806 3.64597e-05 0)
(0.999972 0.00011569 0)
(0.999901 0.000171326 0)
(0.999491 0.000258581 0)
(0.999307 0.000325379 0)
(0.999418 0.000286129 0)
(0.999419 0.000633373 0)
(0.99943 0.00125545 0)
(0.999665 0.00160649 0)
(0.999905 0.0017972 0)
(1.0001 0.00212266 0)
(1.00043 0.00249191 0)
(1.00089 0.00276786 0)
(1.00123 0.00291763 0)
(1.00132 0.00297218 0)
(1.00125 0.00274604 0)
(1 6.01473e-07 0)
(1 1.03091e-05 0)
(0.99995 -0.000107111 0)
(0.999854 3.66155e-05 0)
(0.999851 0.000299089 0)
(0.999956 0.000231977 0)
(0.999861 -0.000119614 0)
(0.999524 -8.77205e-05 0)
(0.999401 0.000424235 0)
(0.999555 0.000837353 0)
(0.999606 0.00109514 0)
(0.999591 0.0012862 0)
(0.999767 0.00141026 0)
(1.00006 0.00164408 0)
(1.00033 0.00210945 0)
(1.00062 0.00254097 0)
(1.00095 0.0026467 0)
(1.00114 0.00246829 0)
(1.00106 0.00215964 0)
(1.00092 0.00186364 0)
(1 -7.61261e-06 0)
(0.999989 5.34322e-06 0)
(0.999963 -5.29785e-05 0)
(0.999916 8.48241e-05 0)
(0.999863 0.000278888 0)
(0.999861 0.000106995 0)
(0.999819 -0.00020345 0)
(0.999692 5.25257e-05 0)
(0.999649 0.000771131 0)
(0.999687 0.00116143 0)
(0.999611 0.00110379 0)
(0.999581 0.000988305 0)
(0.999858 0.0011141 0)
(1.00031 0.00154218 0)
(1.00064 0.0021136 0)
(1.00078 0.00250079 0)
(1.00083 0.00246875 0)
(1.00086 0.00211613 0)
(1.00083 0.00182815 0)
(1.00093 0.00181359 0)
(0.999999 -1.50031e-05 0)
(0.999988 2.3002e-05 0)
(0.99997 2.34174e-05 0)
(0.999942 2.56807e-05 0)
(0.999857 0.000115538 0)
(0.999817 0.000130612 0)
(0.99986 9.99943e-05 0)
(0.999882 0.000327895 0)
(0.999825 0.000725749 0)
(0.99969 0.0008797 0)
(0.999532 0.00084341 0)
(0.999615 0.000948033 0)
(1.00009 0.00131079 0)
(1.00067 0.00179281 0)
(1.00095 0.00218326 0)
(1.00087 0.0023494 0)
(1.00066 0.00225781 0)
(1.00063 0.00199688 0)
(1.00081 0.00187872 0)
(1.00114 0.00201424 0)
(0.999998 -1.08549e-05 0)
(0.99999 2.74314e-05 0)
(0.999959 4.44276e-05 0)
(0.999942 -2.98955e-05 0)
(0.999892 6.30266e-05 0)
(0.999859 0.000279573 0)
(0.999891 0.000351808 0)
(0.999927 0.00031168 0)
(0.999872 0.000374998 0)
(0.999741 0.000602235 0)
(0.999662 0.00097359 0)
(0.999854 0.00142608 0)
(1.00037 0.00176607 0)
(1.00087 0.00186744 0)
(1.00102 0.00183327 0)
(1.00083 0.00178964 0)
(1.00056 0.00180566 0)
(1.00055 0.00186773 0)
(1.00087 0.00195148 0)
(1.00127 0.00207479 0)
(0.999996 -1.99455e-06 0)
(0.999992 9.47931e-06 0)
(0.999949 4.83355e-05 0)
(0.999946 3.15119e-06 0)
(0.999954 8.60738e-05 0)
(0.999913 0.000301453 0)
(0.999859 0.000354993 0)
(0.999884 0.00023178 0)
(0.999955 0.000298887 0)
(0.999989 0.000729174 0)
(0.999982 0.00129269 0)
(1.00007 0.00169232 0)
(1.00036 0.0016911 0)
(1.00071 0.00140274 0)
(1.0009 0.00121353 0)
(1.00086 0.0013058 0)
(1.00076 0.00165788 0)
(1.0008 0.00207471 0)
(1.00105 0.0023284 0)
(1.00138 0.00239078 0)
(0.999994 4.64741e-06 0)
(0.999996 -5.57841e-06 0)
(0.999952 5.899e-05 0)
(0.99995 6.33278e-05 0)
(0.999992 7.97182e-05 0)
(0.999948 0.00020561 0)
(0.999847 0.000319424 0)
(0.999897 0.000357715 0)
(1.00011 0.000510328 0)
(1.00026 0.000853859 0)
(1.0002 0.00120357 0)
(1.00008 0.00137326 0)
(1.00016 0.00127034 0)
(1.00052 0.00111359 0)
(1.00097 0.00117957 0)
(1.00125 0.00153039 0)
(1.00132 0.00203324 0)
(1.00125 0.002429 0)
(1.00123 0.00256456 0)
(1.00135 0.00244058 0)
(0.999993 8.82101e-06 0)
(1 -6.1677e-06 0)
(0.999966 5.8998e-05 0)
(0.999949 9.26489e-05 0)
(1 6.79301e-05 0)
(0.999997 0.000147595 0)
(0.999915 0.000350359 0)
(0.999963 0.00052716 0)
(1.0002 0.000622738 0)
(1.00036 0.000706735 0)
(1.00028 0.000853864 0)
(1.0001 0.00104209 0)
(1.00017 0.0012278 0)
(1.00065 0.00142543 0)
(1.00128 0.00162952 0)
(1.00168 0.00184715 0)
(1.00168 0.00202091 0)
(1.00137 0.00205466 0)
(1.00105 0.00195463 0)
(1.00096 0.0017755 0)
(0.999993 1.08332e-05 0)
(1.00001 1.2951e-06 0)
(0.999983 4.49977e-05 0)
(0.999953 0.000100472 0)
(1.00001 9.31033e-05 0)
(1.00006 0.000152211 0)
(1.00002 0.000352349 0)
(1.00001 0.000541443 0)
(1.00019 0.000571621 0)
(1.00038 0.000563663 0)
(1.00041 0.000723426 0)
(1.00035 0.00104966 0)
(1.00046 0.00143618 0)
(1.00086 0.00166245 0)
(1.00135 0.0016579 0)
(1.00163 0.00150754 0)
(1.00152 0.00134557 0)
(1.00115 0.00126067 0)
(1.00086 0.00129195 0)
(1.00084 0.00141247 0)
(0.999994 1.01198e-05 0)
(1.00001 1.1143e-05 0)
(1 3.26641e-05 0)
(0.99997 0.000102786 0)
(1.00002 0.000129765 0)
(1.00011 0.000159982 0)
(1.0001 0.000291566 0)
(1.00006 0.000461027 0)
(1.00019 0.00054132 0)
(1.00045 0.000600656 0)
(1.00062 0.000772378 0)
(1.00065 0.00105219 0)
(1.00067 0.00132449 0)
(1.00082 0.00137424 0)
(1.00109 0.0012397 0)
(1.00132 0.00104566 0)
(1.00138 0.000989981 0)
(1.00132 0.00115021 0)
(1.00128 0.00146778 0)
(1.00138 0.00178133 0)
(0.999995 7.39302e-06 0)
(1.00001 2.12758e-05 0)
(1.00002 2.96409e-05 0)
(0.999997 9.64491e-05 0)
(1.00004 0.000144179 0)
(1.00014 0.000156685 0)
(1.00017 0.000233645 0)
(1.00015 0.00039686 0)
(1.00026 0.000549069 0)
(1.00053 0.000636412 0)
(1.00074 0.000713377 0)
(1.00079 0.000832926 0)
(1.00072 0.000958101 0)
(1.00075 0.00101892 0)
(1.00098 0.00105451 0)
(1.00134 0.00110365 0)
(1.00167 0.00124742 0)
(1.00184 0.00145771 0)
(1.00182 0.00165175 0)
(1.00172 0.0017177 0)
(0.999997 4.28749e-06 0)
(1.00001 2.87963e-05 0)
(1.00004 3.1841e-05 0)
(1.00003 8.11955e-05 0)
(1.00006 0.000137433 0)
(1.00016 0.000156137 0)
(1.00023 0.000206125 0)
(1.00025 0.000341602 0)
(1.00034 0.000490814 0)
(1.00055 0.00054638 0)
(1.00076 0.000556323 0)
(1.00085 0.000604804 0)
(1.00083 0.000730431 0)
(1.00092 0.00091997 0)
(1.00118 0.00109848 0)
(1.00156 0.00121577 0)
(1.00186 0.00125073 0)
(1.0019 0.00120094 0)
(1.00167 0.00109706 0)
(1.00133 0.00097053 0)
(0.999998 1.84896e-06 0)
(1.00001 3.12784e-05 0)
(1.00004 3.4371e-05 0)
(1.00005 6.46694e-05 0)
(1.00008 0.00012042 0)
(1.00018 0.000150378 0)
(1.00028 0.000181021 0)
(1.00033 0.000263995 0)
(1.00039 0.000368151 0)
(1.00056 0.000416379 0)
(1.00077 0.000438612 0)
(1.00094 0.000485843 0)
(1.00104 0.000613646 0)
(1.00116 0.000776831 0)
(1.00133 0.000876979 0)
(1.00151 0.000872469 0)
(1.00161 0.000771754 0)
(1.00155 0.000658986 0)
(1.00138 0.000620492 0)
(1.00126 0.000702652 0)
(0.999999 2.74148e-07 0)
(1.00001 2.89726e-05 0)
(1.00005 3.48035e-05 0)
(1.00008 5.03281e-05 0)
(1.00011 9.50449e-05 0)
(1.00019 0.000126413 0)
(1.0003 0.000142562 0)
(1.00037 0.000180574 0)
(1.00044 0.000249415 0)
(1.00059 0.000305415 0)
(1.00081 0.000330954 0)
(1.00101 0.000344929 0)
(1.00115 0.000384707 0)
(1.00122 0.000420126 0)
(1.00128 0.000436538 0)
(1.00137 0.000429923 0)
(1.00149 0.000443566 0)
(1.00163 0.000525668 0)
(1.00177 0.000693272 0)
(1.00189 0.000909022 0)
(1 -6.27175e-07 0)
(1.00001 2.37127e-05 0)
(1.00005 3.15243e-05 0)
(1.00009 3.61373e-05 0)
(1.00013 6.33168e-05 0)
(1.0002 8.80846e-05 0)
(1.0003 9.64043e-05 0)
(1.0004 0.000108057 0)
(1.00048 0.000146197 0)
(1.00061 0.000176802 0)
(1.00079 0.000168881 0)
(1.00098 0.000133137 0)
(1.00111 9.60404e-05 0)
(1.00121 8.42324e-05 0)
(1.00132 0.000118038 0)
(1.00152 0.000185597 0)
(1.00178 0.000287037 0)
(1.00203 0.000391295 0)
(1.00217 0.000477688 0)
(1.00216 0.000517523 0)
(1 -1.13229e-06 0)
(1.00001 1.72628e-05 0)
(1.00005 2.44021e-05 0)
(1.0001 2.11743e-05 0)
(1.00014 3.13747e-05 0)
(1.00021 4.51963e-05 0)
(1.0003 4.64302e-05 0)
(1.0004 3.98748e-05 0)
(1.00048 4.16762e-05 0)
(1.00059 3.24244e-05 0)
(1.00073 -7.45109e-07 0)
(1.0009 -5.81153e-05 0)
(1.00106 -0.000113722 0)
(1.00124 -0.000139432 0)
(1.00143 -0.000140008 0)
(1.00165 -0.000137673 0)
(1.00186 -0.000155844 0)
(1.00199 -0.000204444 0)
(1.00201 -0.000261264 0)
(1.00192 -0.00029694 0)
(1 -1.43829e-06 0)
(1.00001 1.09825e-05 0)
(1.00005 1.54736e-05 0)
(1.0001 7.205e-06 0)
(1.00015 4.28907e-06 0)
(1.00021 4.91238e-06 0)
(1.00029 -2.82657e-06 0)
(1.00038 -2.37032e-05 0)
(1.00045 -4.82924e-05 0)
(1.00054 -7.92431e-05 0)
(1.00066 -0.000124132 0)
(1.00081 -0.00019274 0)
(1.00098 -0.000271713 0)
(1.00114 -0.000361282 0)
(1.0013 -0.000459982 0)
(1.00145 -0.000570458 0)
(1.0016 -0.000681668 0)
(1.00176 -0.000767658 0)
(1.00193 -0.000799121 0)
(1.00212 -0.000760725 0)
(0.999999 -1.54962e-06 0)
(1.00001 5.95148e-06 0)
(1.00005 7.44299e-06 0)
(1.0001 -3.38458e-06 0)
(1.00015 -1.43721e-05 0)
(1.0002 -2.42735e-05 0)
(1.00027 -3.90475e-05 0)
(1.00034 -6.67059e-05 0)
(1.00041 -0.000100416 0)
(1.00048 -0.000141722 0)
(1.00056 -0.000198156 0)
(1.00066 -0.000279279 0)
(1.00078 -0.000384159 0)
(1.00089 -0.0005103 0)
(1.00102 -0.000640133 0)
(1.00118 -0.000766752 0)
(1.00141 -0.000874196 0)
(1.0017 -0.000961691 0)
(1.00203 -0.00102429 0)
(1.00233 -0.00106727 0)
(0.999999 -1.3392e-06 0)
(1.00001 2.91092e-06 0)
(1.00005 2.74022e-06 0)
(1.00009 -8.33763e-06 0)
(1.00014 -2.14139e-05 0)
(1.00019 -3.52808e-05 0)
(1.00024 -5.10666e-05 0)
(1.0003 -7.67805e-05 0)
(1.00035 -0.000109073 0)
(1.0004 -0.000151843 0)
(1.00045 -0.000205471 0)
(1.0005 -0.000277361 0)
(1.00057 -0.000365622 0)
(1.00066 -0.000465978 0)
(1.00077 -0.000572535 0)
(1.00093 -0.00068639 0)
(1.00113 -0.000808736 0)
(1.00135 -0.000942253 0)
(1.00161 -0.00107673 0)
(1.0019 -0.0011962 0)
(0.999999 -1.3521e-06 0)
(1.00001 1.96903e-06 0)
(1.00004 1.38591e-06 0)
(1.00008 -4.88766e-06 0)
(1.00013 -1.67606e-05 0)
(1.00017 -2.57614e-05 0)
(1.00022 -3.98289e-05 0)
(1.00026 -5.28475e-05 0)
(1.0003 -7.80075e-05 0)
(1.00033 -0.000100577 0)
(1.00036 -0.000137888 0)
(1.00039 -0.000173824 0)
(1.00042 -0.000230433 0)
(1.00047 -0.000286897 0)
(1.00053 -0.000367455 0)
(1.00061 -0.000444028 0)
(1.00074 -0.000538031 0)
(1.00094 -0.00061095 0)
(1.00125 -0.000680598 0)
(1.00168 -0.00070982 0)
(0.999999 -7.8604e-07 0)
(1.00001 9.95299e-07 0)
(1.00004 6.2637e-07 0)
(1.00008 -3.26282e-07 0)
(1.00012 -5.91886e-06 0)
(1.00017 -7.89126e-06 0)
(1.00021 -1.47509e-05 0)
(1.00025 -1.63879e-05 0)
(1.00028 -2.67523e-05 0)
(1.0003 -2.97164e-05 0)
(1.00032 -4.41681e-05 0)
(1.00033 -5.08651e-05 0)
(1.00034 -7.37154e-05 0)
(1.00036 -9.00817e-05 0)
(1.0004 -0.00012231 0)
(1.0005 -0.000140189 0)
(1.00067 -0.000164473 0)
(1.00093 -0.000163868 0)
(1.0013 -0.000166514 0)
(1.00173 -0.000149385 0)
(0.986141 0.000215408 0)
(0.960778 0.000212256 0)
(0.935369 0.000847453 0)
(0.910936 0.00126651 0)
(0.88649 0.001342 0)
(0.862073 0.00163386 0)
(0.837192 0.00188729 0)
(0.811473 0.00188684 0)
(0.785099 0.00204524 0)
(0.758159 0.00227394 0)
(0.730602 0.00245649 0)
(0.701834 0.00263018 0)
(0.672184 0.0027687 0)
(0.641664 0.00288191 0)
(0.610482 0.00282331 0)
(0.579726 0.00268881 0)
(0.549027 0.00254896 0)
(0.518843 0.00224274 0)
(0.490085 0.00214925 0)
(0.461307 0.00244703 0)
(0.431323 0.0026821 0)
(0.399917 0.00259748 0)
(0.368268 0.00230235 0)
(0.338454 0.0020438 0)
(0.311688 0.00177103 0)
(0.288295 0.00131287 0)
(0.26883 0.000773942 0)
(0.254315 0.000238731 0)
(0.244445 -0.000260561 0)
(0.237563 -0.000576975 0)
(0.232452 -0.000701295 0)
(0.228805 -0.000774935 0)
(0.226598 -0.000795822 0)
(0.225406 -0.000729411 0)
(0.224516 -0.000649544 0)
(0.223654 -0.000562261 0)
(0.222933 -0.000419346 0)
(0.222246 -0.000250193 0)
(0.221316 -9.63442e-05 0)
(0.220036 1.75481e-05 0)
(0.218501 5.61994e-05 0)
(0.216844 3.02112e-05 0)
(0.215133 -1.85645e-05 0)
(0.213514 -7.18251e-05 0)
(0.212216 -9.91022e-05 0)
(0.211285 -7.29314e-05 0)
(0.210598 -3.16794e-05 0)
(0.2101 -2.19528e-05 0)
(0.209674 -2.95814e-05 0)
(0.209118 -2.91619e-05 0)
(0.208525 -2.61393e-05 0)
(0.208208 -2.50372e-05 0)
(0.208184 -1.93674e-05 0)
(0.208177 -1.13782e-05 0)
(0.208095 -7.86825e-06 0)
(0.20806 -6.17372e-06 0)
(0.208149 -2.21725e-06 0)
(0.208284 2.52624e-06 0)
(0.208429 4.61895e-06 0)
(0.208565 4.80119e-06 0)
(0.208717 4.03329e-06 0)
(0.208839 3.40208e-06 0)
(0.208953 2.29211e-06 0)
(0.209021 1.60172e-06 0)
(0.209096 7.2942e-07 0)
(0.209129 4.27475e-07 0)
(0.209184 -1.00922e-07 0)
(0.209194 -1.6651e-07 0)
(0.209239 -3.68951e-07 0)
(0.209234 -3.04339e-07 0)
(0.209271 -2.38453e-07 0)
(0.209256 -2.49557e-07 0)
(0.209285 -1.6527e-08 0)
(0.209267 -2.14481e-07 0)
(0.20929 1.33389e-07 0)
(0.209273 -2.13799e-07 0)
(0.20929 1.76901e-07 0)
(0.209278 -1.81405e-07 0)
(0.20929 1.2258e-07 0)
(0.209281 -7.94075e-08 0)
(0.209291 2.49316e-09 0)
(0.209281 5.82199e-08 0)
(0.209294 -1.11759e-07 0)
(0.209278 1.46237e-07 0)
(0.209299 -1.31197e-07 0)
(0.209272 1.20701e-07 0)
(0.209304 -2.98298e-08 0)
(0.209264 2.79276e-08 0)
(0.209309 9.46072e-08 0)
(0.209254 3.67069e-08 0)
(0.209312 1.13832e-07 0)
(0.209237 2.6252e-07 0)
(0.20931 1.57526e-07 0)
(0.209205 5.51992e-07 0)
(0.209296 7.26211e-07 0)
(0.209134 7.86688e-07 0)
(0.209251 2.58449e-06 0)
(0.208934 7.14454e-07 0)
(0.209158 9.51423e-06 0)
(0.208083 2.037e-05 0)
(0.998707 0.000346138 0)
(0.99715 0.000662712 0)
(0.995239 0.00247193 0)
(0.993633 0.00376659 0)
(0.9922 0.00415536 0)
(0.99031 0.00482747 0)
(0.987981 0.00536384 0)
(0.984597 0.0052593 0)
(0.980507 0.00529131 0)
(0.975777 0.00555067 0)
(0.970021 0.00569422 0)
(0.963424 0.00584051 0)
(0.955467 0.0060316 0)
(0.946587 0.00618373 0)
(0.936623 0.00623514 0)
(0.925775 0.00618685 0)
(0.914286 0.00605626 0)
(0.901813 0.00585166 0)
(0.889142 0.00565853 0)
(0.875764 0.00564134 0)
(0.861283 0.00588924 0)
(0.845583 0.00619819 0)
(0.829006 0.00628389 0)
(0.812053 0.00599927 0)
(0.79503 0.00548201 0)
(0.778932 0.00508593 0)
(0.763227 0.00461151 0)
(0.748598 0.00374452 0)
(0.736113 0.00288998 0)
(0.723879 0.00232611 0)
(0.711996 0.0018669 0)
(0.701732 0.00142865 0)
(0.692074 0.00104404 0)
(0.683097 0.000791565 0)
(0.675043 0.000678838 0)
(0.666828 0.000561627 0)
(0.658982 0.000423075 0)
(0.652084 0.000369399 0)
(0.645125 0.000388562 0)
(0.6382 0.000402861 0)
(0.631881 0.000391788 0)
(0.625548 0.000381609 0)
(0.619243 0.000372392 0)
(0.613675 0.000320573 0)
(0.608569 0.000230462 0)
(0.603674 0.000151321 0)
(0.599521 8.92357e-05 0)
(0.596134 5.07802e-05 0)
(0.592962 6.1771e-05 0)
(0.589928 7.77016e-05 0)
(0.587367 3.47396e-05 0)
(0.585362 -2.80825e-05 0)
(0.583788 -4.25404e-05 0)
(0.582513 -2.57203e-05 0)
(0.581506 -2.79666e-05 0)
(0.580743 -4.65981e-05 0)
(0.580288 -5.62011e-05 0)
(0.580095 -5.26265e-05 0)
(0.58017 -4.6983e-05 0)
(0.580388 -4.00737e-05 0)
(0.580759 -3.1709e-05 0)
(0.581114 -2.15294e-05 0)
(0.581517 -1.41202e-05 0)
(0.5818 -7.89855e-06 0)
(0.582125 -4.6106e-06 0)
(0.582303 -1.45885e-06 0)
(0.582561 -4.7961e-07 0)
(0.582654 6.7914e-07 0)
(0.582859 5.49664e-07 0)
(0.582881 5.90697e-07 0)
(0.583037 4.46611e-07 0)
(0.583006 -7.38581e-08 0)
(0.58312 3.52776e-07 0)
(0.583066 -5.47122e-07 0)
(0.583148 4.54759e-07 0)
(0.583097 -7.14643e-07 0)
(0.583151 5.05999e-07 0)
(0.583116 -6.07603e-07 0)
(0.583148 3.2967e-07 0)
(0.583125 -2.72901e-07 0)
(0.583152 -1.62305e-08 0)
(0.583121 1.15772e-07 0)
(0.583167 -2.75133e-07 0)
(0.583103 2.692e-07 0)
(0.58319 -1.87719e-07 0)
(0.583081 5.76032e-08 0)
(0.583211 1.96796e-07 0)
(0.583062 -2.26471e-07 0)
(0.583223 4.60138e-07 0)
(0.583045 -9.84372e-08 0)
(0.583235 3.95978e-07 0)
(0.583011 4.13494e-07 0)
(0.583259 6.66491e-07 0)
(0.582942 7.03123e-07 0)
(0.583281 2.38083e-06 0)
(0.582827 8.341e-07 0)
(0.583272 6.16932e-06 0)
(0.582572 3.8587e-06 0)
(0.583198 1.18324e-05 0)
(0.581844 4.63487e-05 0)
(0.998608 0.000817071 0)
(0.997763 0.00127193 0)
(0.996963 0.00329982 0)
(0.996664 0.00488124 0)
(0.997131 0.00528969 0)
(0.997721 0.005919 0)
(0.998373 0.00645221 0)
(0.998578 0.00617986 0)
(0.998652 0.00599556 0)
(0.998794 0.00622862 0)
(0.998566 0.00637397 0)
(0.998206 0.00657434 0)
(0.997353 0.00692024 0)
(0.996303 0.00720153 0)
(0.994893 0.00745598 0)
(0.993104 0.0075577 0)
(0.990972 0.00752094 0)
(0.988102 0.00746321 0)
(0.985046 0.00726616 0)
(0.981483 0.00719139 0)
(0.97764 0.00758296 0)
(0.973832 0.00806743 0)
(0.969773 0.00810418 0)
(0.965403 0.00772704 0)
(0.960457 0.00715403 0)
(0.955486 0.0066732 0)
(0.950575 0.00622049 0)
(0.945579 0.00527858 0)
(0.9408 0.00426401 0)
(0.935725 0.00379333 0)
(0.930541 0.00341463 0)
(0.925723 0.00286697 0)
(0.920576 0.00241933 0)
(0.915313 0.00211288 0)
(0.910548 0.00194697 0)
(0.905693 0.00185458 0)
(0.900803 0.00165996 0)
(0.896409 0.00148171 0)
(0.892031 0.00147596 0)
(0.887499 0.00147065 0)
(0.883122 0.00137408 0)
(0.878586 0.00133439 0)
(0.873923 0.00132301 0)
(0.869648 0.00119517 0)
(0.865605 0.00103315 0)
(0.861573 0.000932902 0)
(0.857907 0.000803033 0)
(0.854623 0.000650863 0)
(0.851406 0.000605732 0)
(0.848325 0.000610134 0)
(0.845602 0.000511868 0)
(0.843151 0.00035664 0)
(0.840931 0.000274182 0)
(0.838984 0.0002521 0)
(0.837332 0.000208815 0)
(0.835873 0.000141205 0)
(0.834678 8.49066e-05 0)
(0.833716 4.56907e-05 0)
(0.833056 9.39118e-06 0)
(0.832556 -2.08358e-05 0)
(0.83232 -3.99654e-05 0)
(0.832151 -4.59951e-05 0)
(0.832197 -4.68317e-05 0)
(0.832195 -4.3394e-05 0)
(0.832405 -4.04782e-05 0)
(0.832511 -3.54966e-05 0)
(0.832873 -3.15464e-05 0)
(0.833065 -2.56098e-05 0)
(0.833512 -2.03459e-05 0)
(0.833689 -1.45457e-05 0)
(0.834093 -9.70037e-06 0)
(0.834165 -6.39568e-06 0)
(0.834456 -3.13897e-06 0)
(0.834429 -2.66169e-06 0)
(0.834615 -3.69257e-07 0)
(0.834547 -1.55782e-06 0)
(0.834661 4.76679e-07 0)
(0.834596 -1.20084e-06 0)
(0.83467 5.42282e-07 0)
(0.834611 -8.15668e-07 0)
(0.834679 2.91209e-07 0)
(0.834604 -3.71222e-07 0)
(0.834701 4.44457e-08 0)
(0.83458 -1.08325e-07 0)
(0.834729 5.78388e-08 0)
(0.834556 -1.52037e-07 0)
(0.834748 3.37364e-07 0)
(0.834542 -3.08716e-07 0)
(0.834756 6.39324e-07 0)
(0.83453 -2.31357e-07 0)
(0.834767 8.27027e-07 0)
(0.834497 2.45529e-07 0)
(0.834796 1.28929e-06 0)
(0.834436 9.09923e-07 0)
(0.834816 3.26981e-06 0)
(0.834356 1.80316e-06 0)
(0.834792 7.39554e-06 0)
(0.834196 8.72326e-06 0)
(0.834699 1.21368e-05 0)
(0.833723 6.29738e-05 0)
(0.998886 0.00108811 0)
(0.998265 0.00167197 0)
(0.99751 0.00321658 0)
(0.997058 0.00464583 0)
(0.997338 0.00516449 0)
(0.998029 0.00574935 0)
(0.998652 0.0062729 0)
(0.998944 0.00608972 0)
(0.999378 0.00597154 0)
(0.999915 0.00622133 0)
(1.00034 0.00643702 0)
(1.00074 0.00675816 0)
(1.00098 0.00718907 0)
(1.00131 0.00753311 0)
(1.00153 0.00783673 0)
(1.00177 0.00793909 0)
(1.00187 0.00786572 0)
(1.00152 0.00777597 0)
(1.00118 0.00754962 0)
(1.00055 0.00748588 0)
(0.999938 0.00793948 0)
(0.999846 0.00834183 0)
(0.999849 0.00819295 0)
(0.999811 0.00778807 0)
(0.99937 0.00724462 0)
(0.998683 0.00677549 0)
(0.998217 0.00633903 0)
(0.997592 0.00531285 0)
(0.996533 0.00427284 0)
(0.995209 0.00389046 0)
(0.993978 0.00349527 0)
(0.992774 0.00290877 0)
(0.990981 0.0025219 0)
(0.988926 0.00227131 0)
(0.987231 0.00214516 0)
(0.985487 0.00208624 0)
(0.983603 0.00186187 0)
(0.98196 0.00164787 0)
(0.980398 0.00166687 0)
(0.978878 0.00169635 0)
(0.977442 0.00162496 0)
(0.975779 0.00162846 0)
(0.973998 0.0016376 0)
(0.972352 0.00147948 0)
(0.970615 0.00129226 0)
(0.968837 0.00118967 0)
(0.967328 0.00103893 0)
(0.965877 0.000860163 0)
(0.964318 0.000819729 0)
(0.96292 0.000831324 0)
(0.961725 0.00070671 0)
(0.960455 0.000516165 0)
(0.959187 0.000419321 0)
(0.958109 0.00039161 0)
(0.957215 0.000333128 0)
(0.956328 0.000243931 0)
(0.955541 0.000168048 0)
(0.954845 0.000111238 0)
(0.954331 5.80552e-05 0)
(0.953842 1.27784e-05 0)
(0.953532 -1.78707e-05 0)
(0.953216 -3.22153e-05 0)
(0.953108 -3.8704e-05 0)
(0.952921 -3.99393e-05 0)
(0.952969 -4.20724e-05 0)
(0.952877 -4.38213e-05 0)
(0.95308 -4.75028e-05 0)
(0.953084 -4.85794e-05 0)
(0.953433 -4.7657e-05 0)
(0.953497 -4.26363e-05 0)
(0.953907 -3.52454e-05 0)
(0.953947 -2.72342e-05 0)
(0.954311 -1.85697e-05 0)
(0.954277 -1.31666e-05 0)
(0.954546 -6.8496e-06 0)
(0.954458 -5.50236e-06 0)
(0.95464 -1.40849e-06 0)
(0.954539 -2.55428e-06 0)
(0.954664 3.35686e-07 0)
(0.954568 -1.4734e-06 0)
(0.954672 5.45985e-07 0)
(0.954568 -8.12512e-07 0)
(0.954687 2.92903e-07 0)
(0.954551 -3.1682e-07 0)
(0.954707 1.28652e-07 0)
(0.954533 -1.38745e-07 0)
(0.95472 3.17295e-07 0)
(0.954523 -2.63512e-07 0)
(0.954722 7.63344e-07 0)
(0.954518 -3.1417e-07 0)
(0.954726 1.18183e-06 0)
(0.954496 1.90868e-07 0)
(0.954744 1.73944e-06 0)
(0.954454 1.25778e-06 0)
(0.954755 3.88357e-06 0)
(0.954407 2.8957e-06 0)
(0.954721 8.55973e-06 0)
(0.954316 1.20675e-05 0)
(0.954637 1.46389e-05 0)
(0.953999 7.29766e-05 0)
(0.999195 0.000915598 0)