/*--------------------------------*- C++ -*----------------------------------*\
  =========                 |
  \\      /  F ield         | OpenFOAM: The Open Source CFD Toolbox
   \\    /   O peration     | Website:  https://openfoam.org
    \\  /    A nd           | Version:  6
     \\/     M anipulation  |
\*---------------------------------------------------------------------------*/
FoamFile
{
    version     2.0;
    format      ascii;
    class       volScalarField;
    location    "0.9";
    object      p;
}
// * * * * * * * * * * * * * * * * * * * * * * * * * * * * * * * * * * * * * //

dimensions      [0 2 -2 0 0 0 0];

internalField   nonuniform List<scalar> 
4800
(
9.78028e-09
-0.000601265
-0.00190802
-0.00356955
-0.00577212
-0.00845657
-0.0114306
-0.0146772
-0.0179854
-0.0210583
-0.0237643
-0.0259775
-0.0277268
-0.0292139
-0.0305695
-0.0318003
-0.0328196
-0.0335653
-0.0338871
-0.0335746
-9.4926e-07
-0.000599488
-0.00190814
-0.00356891
-0.005773
-0.00845564
-0.0114285
-0.014677
-0.0179855
-0.0210608
-0.0237644
-0.0259798
-0.0277273
-0.0292149
-0.0305716
-0.031799
-0.032828
-0.0335825
-0.0339105
-0.0336437
-8.36295e-06
-0.00059259
-0.00190788
-0.00356598
-0.00577659
-0.00845079
-0.0114218
-0.0146757
-0.0179875
-0.0210682
-0.0237684
-0.0259874
-0.0277299
-0.0292163
-0.0305696
-0.0317938
-0.0328468
-0.0336232
-0.0339661
-0.0338139
-1.86466e-05
-0.000582158
-0.00190327
-0.00356006
-0.00578065
-0.00844012
-0.0114083
-0.0146733
-0.0179918
-0.0210811
-0.0237787
-0.0260011
-0.0277376
-0.0292196
-0.0305647
-0.0317894
-0.0328897
-0.0337041
-0.0340764
-0.0340559
-2.31008e-05
-0.000575217
-0.00188894
-0.00355105
-0.00577908
-0.00842098
-0.0113867
-0.0146699
-0.0179972
-0.0210966
-0.0237947
-0.0260193
-0.027754
-0.0292292
-0.0305642
-0.0317952
-0.0329692
-0.0338381
-0.0342708
-0.034282
-2.06169e-05
-0.00057901
-0.00186414
-0.00353907
-0.0057669
-0.00838917
-0.0113579
-0.0146641
-0.018002
-0.0211096
-0.023811
-0.0260404
-0.0277815
-0.029253
-0.030579
-0.0318175
-0.0330916
-0.0340191
-0.0344535
-0.0344328
-1.55623e-05
-0.000596191
-0.00183457
-0.00352547
-0.0057442
-0.0083423
-0.0113252
-0.0146547
-0.0180054
-0.0211168
-0.0238245
-0.0260659
-0.0278237
-0.0292997
-0.0306185
-0.0318626
-0.0332503
-0.0342188
-0.0345958
-0.034478
-7.95552e-06
-0.000622695
-0.00180862
-0.00351298
-0.00571497
-0.00828161
-0.0112929
-0.0146422
-0.0180063
-0.0211187
-0.0238381
-0.0261023
-0.0278886
-0.0293739
-0.0306901
-0.0319592
-0.0334407
-0.0344192
-0.0347166
-0.0344536
2.11631e-05
-0.000651237
-0.00178982
-0.00350349
-0.00568059
-0.0082116
-0.0112617
-0.0146245
-0.0180024
-0.0211148
-0.0238581
-0.0261556
-0.0279838
-0.0294763
-0.0307882
-0.0321458
-0.033624
-0.0346258
-0.0348808
-0.0344982
0.000102191
-0.000673075
-0.00177403
-0.00349378
-0.0056373
-0.00813656
-0.0112265
-0.014594
-0.0179887
-0.0211062
-0.0238927
-0.0262292
-0.028111
-0.0295961
-0.0308824
-0.0322888
-0.0337633
-0.0348654
-0.0351877
-0.0345972
0.000213214
-0.000668541
-0.00175394
-0.00347229
-0.00557809
-0.00805921
-0.0111798
-0.0145413
-0.0179598
-0.0210978
-0.0239492
-0.026327
-0.0282618
-0.0296819
-0.0309151
-0.0323213
-0.0338185
-0.03514
-0.0357313
-0.0348501
0.000239439
-0.000615938
-0.00171955
-0.00342548
-0.00549184
-0.00798395
-0.0111107
-0.0144696
-0.0179106
-0.0210994
-0.0240304
-0.0264688
-0.0283804
-0.0296863
-0.0308567
-0.0322206
-0.0337573
-0.0353891
-0.0364009
-0.0356034
0.000106212
-0.000525092
-0.00166157
-0.00335224
-0.0053715
-0.00791663
-0.0110111
-0.0143872
-0.0178429
-0.0211249
-0.0241342
-0.0266137
-0.0283769
-0.0295768
-0.0307145
-0.0320253
-0.0335898
-0.03559
-0.0369798
-0.0369387
-7.01046e-05
-0.000428663
-0.00158631
-0.00325308
-0.00523068
-0.00784676
-0.0108902
-0.0142939
-0.0177757
-0.0211774
-0.0242326
-0.0266595
-0.02824
-0.0293665
-0.0305245
-0.0318362
-0.0334461
-0.0359306
-0.0379462
-0.0389205
-0.000119368
-0.000360285
-0.00151363
-0.00313012
-0.00510039
-0.00775607
-0.0107694
-0.0141899
-0.0177274
-0.0212281
-0.0242688
-0.0265378
-0.0279988
-0.029103
-0.0303348
-0.0317772
-0.0336488
-0.0367033
-0.0394597
-0.0411279
-3.53127e-08
-0.000324151
-0.00144836
-0.00299452
-0.00499972
-0.00764427
-0.0106614
-0.014083
-0.0176925
-0.0212299
-0.024179
-0.0262765
-0.0276887
-0.0288337
-0.0301824
-0.0319235
-0.0344576
-0.0380764
-0.0414014
-0.0434155
0.000212423
-0.000305502
-0.00138188
-0.00286474
-0.00492371
-0.0075234
-0.01056
-0.0139787
-0.0176453
-0.0211359
-0.0239293
-0.0259114
-0.0273343
-0.0285841
-0.0300977
-0.0322461
-0.0357265
-0.0399465
-0.0436299
-0.0457415
0.000391923
-0.000271081
-0.00130111
-0.00274884
-0.00484001
-0.00738926
-0.0104418
-0.0138678
-0.0175435
-0.0209104
-0.0235302
-0.0254678
-0.0269572
-0.0283593
-0.0301235
-0.0327441
-0.0372825
-0.0421265
-0.0460054
-0.0480143
0.000437865
-0.000205768
-0.00119448
-0.00264447
-0.00470759
-0.00722156
-0.0102755
-0.0137213
-0.0173373
-0.0205568
-0.0230511
-0.0249884
-0.0265803
-0.0281613
-0.030316
-0.03373
-0.0391445
-0.0444493
-0.0483528
-0.0501004
0.000372709
-0.000102747
-0.00106024
-0.00252701
-0.00451605
-0.00701059
-0.0100458
-0.0135044
-0.0170172
-0.0201217
-0.0225722
-0.0245224
-0.026241
-0.0280425
-0.0307243
-0.035447
-0.0413841
-0.0467931
-0.050498
-0.0518661
0.000379326
3.37394e-05
-0.000908883
-0.0023735
-0.00429414
-0.00677188
-0.0097814
-0.0132108
-0.0166259
-0.0196561
-0.022119
-0.0241111
-0.0259887
-0.0281281
-0.0315058
-0.0374845
-0.0437922
-0.0490185
-0.0523171
-0.0532297
0.000583306
0.000192068
-0.000750035
-0.00218362
-0.00407579
-0.00653077
-0.0095209
-0.0128709
-0.0161934
-0.0191778
-0.0216743
-0.0237753
-0.0258646
-0.0285304
-0.0331969
-0.0397776
-0.0461125
-0.0509482
-0.0537305
-0.0541741
0.000843904
0.000361148
-0.000575932
-0.00198279
-0.0038702
-0.00630242
-0.00924953
-0.0124895
-0.0157066
-0.0186654
-0.0212266
-0.0235185
-0.0259533
-0.0293691
-0.0353937
-0.0421754
-0.0481714
-0.0524559
-0.0547015
-0.0547245
0.000983282
0.000546493
-0.000376767
-0.0017806
-0.00366795
-0.00607355
-0.00892756
-0.0120315
-0.015137
-0.0180869
-0.0207953
-0.0233902
-0.0264026
-0.0311396
-0.0378197
-0.0444358
-0.0498507
-0.0535083
-0.0552612
-0.0549574
0.00107229
0.000747334
-0.000166682
-0.0015675
-0.00345779
-0.00581519
-0.00854437
-0.0114854
-0.0144917
-0.0174626
-0.0204377
-0.0235307
-0.0273327
-0.0334421
-0.0402909
-0.0464148
-0.0511188
-0.0541692
-0.0555238
-0.0550123
0.00124756
0.000935867
2.50993e-05
-0.0013603
-0.00323118
-0.00551091
-0.0081073
-0.0108961
-0.0138357
-0.0168893
-0.0202219
-0.0240508
-0.029006
-0.0357927
-0.0424801
-0.0479864
-0.0520027
-0.0545522
-0.0556378
-0.0550385
0.00147877
0.00109845
0.000185197
-0.00119754
-0.0030072
-0.00518789
-0.00765038
-0.0103421
-0.0132647
-0.016473
-0.0202025
-0.0248521
-0.0310198
-0.0378928
-0.0441215
-0.0490201
-0.0525204
-0.0547659
-0.0557515
-0.0551831
0.0016923
0.00126054
0.000320305
-0.00108893
-0.00284338
-0.00492902
-0.00729119
-0.00994628
-0.0129062
-0.0163049
-0.020439
-0.0258124
-0.0326083
-0.0392651
-0.0449335
-0.04936
-0.0526308
-0.0548661
-0.0559814
-0.0555877
0.00191464
0.00144529
0.000437127
-0.00101992
-0.00279025
-0.00485179
-0.00721326
-0.00990234
-0.0129548
-0.0165441
-0.0210295
-0.0268463
-0.033373
-0.0394407
-0.0445631
-0.0487499
-0.0521282
-0.0546994
-0.0562321
-0.0562175
0.00219892
0.0016578
0.000541185
-0.000993158
-0.00287016
-0.00504662
-0.00755533
-0.0103994
-0.0136291
-0.0174179
-0.0220698
-0.0275289
-0.0330847
-0.0381955
-0.0427452
-0.046854
-0.0505748
-0.0537492
-0.0559736
-0.056602
0.00250543
0.00189608
0.000648353
-0.00101847
-0.00309324
-0.00552908
-0.00834673
-0.0115132
-0.015053
-0.0190233
-0.0234075
-0.0278186
-0.0319068
-0.035697
-0.039461
-0.0433824
-0.0473892
-0.0511601
-0.0541404
-0.055582
0.00271555
0.00211753
0.000765582
-0.00109504
-0.00345383
-0.00625646
-0.00951173
-0.013166
-0.0171494
-0.021244
-0.025042
-0.0281482
-0.0305338
-0.0326079
-0.0350731
-0.038295
-0.0420912
-0.0459944
-0.0493831
-0.0515218
0.00279784
0.00225002
0.000845547
-0.00123782
-0.00392373
-0.00714677
-0.0108975
-0.0151336
-0.0196386
-0.0239073
-0.0272611
-0.0293048
-0.0301421
-0.0302757
-0.0307593
-0.0324082
-0.0350281
-0.0380589
-0.0410758
-0.0437442
0.00282334
0.0022703
0.000810874
-0.00147635
-0.00446213
-0.00808683
-0.0123146
-0.0170788
-0.0220918
-0.0267632
-0.030246
-0.0318657
-0.0317279
-0.0305826
-0.0293899
-0.0288312
-0.0290587
-0.0298341
-0.0309008
-0.0322696
0.00280681
0.00221243
0.000651516
-0.0018056
-0.00501648
-0.00896098
-0.013575
-0.0187187
-0.0240885
-0.029224
-0.0333253
-0.0353334
-0.0350809
-0.0332589
-0.0307857
-0.028359
-0.0263805
-0.0250584
-0.0246332
-0.0255236
0.00274446
0.00210646
0.000437587
-0.00214067
-0.00549747
-0.00966246
-0.0145612
-0.019948
-0.0254471
-0.0306963
-0.0352605
-0.0384801
-0.039452
-0.0382612
-0.0358955
-0.032836
-0.0295542
-0.0268988
-0.0255833
-0.0260281
0.00261336
0.00196561
0.000242816
-0.00238144
-0.00581248
-0.0101135
-0.0152037
-0.0207469
-0.0263088
-0.0315328
-0.0361134
-0.0396864
-0.0420274
-0.0432738
-0.0434192
-0.0417919
-0.0384164
-0.035448
-0.0341074
-0.034352
0.00242655
0.00184056
0.000120831
-0.0025086
-0.00598037
-0.0103546
-0.0154937
-0.0210761
-0.0267699
-0.0322954
-0.037399
-0.0417159
-0.0449925
-0.0470644
-0.0478346
-0.0474563
-0.046545
-0.0459636
-0.046125
-0.0465258
0.00242263
0.00179831
8.21957e-05
-0.00255218
-0.0060856
-0.0104922
-0.0155527
-0.021063
-0.0269641
-0.0331255
-0.0392031
-0.0446602
-0.0491425
-0.05249
-0.0547694
-0.0561376
-0.056769
-0.0567528
-0.0561402
-0.0547079
0.00253972
0.00181047
7.91141e-05
-0.00256335
-0.00614468
-0.0105611
-0.0155575
-0.0210333
-0.0271307
-0.0338802
-0.0409673
-0.0478995
-0.0542728
-0.059822
-0.0644763
-0.0681652
-0.0705034
-0.0708387
-0.0684651
-0.0629263
-0.0324625
-0.03073
-0.0289487
-0.0275722
-0.0267292
-0.0263279
-0.0261766
-0.0261116
-0.0260581
-0.0260298
-0.0260636
-0.0262017
-0.0264575
-0.0268188
-0.027241
-0.0276762
-0.0280866
-0.0284378
-0.0287289
-0.028995
-0.0292975
-0.0296592
-0.0300927
-0.0305987
-0.0311495
-0.0317001
-0.032166
-0.0324424
-0.032431
-0.032128
-0.0316272
-0.0309978
-0.0303256
-0.0296875
-0.0290854
-0.0285542
-0.0280746
-0.0276435
-0.0272751
-0.0269058
-0.0265922
-0.0263405
-0.026067
-0.0258161
-0.0255711
-0.0252706
-0.0249912
-0.0247222
-0.0244259
-0.0241773
-0.0239175
-0.0236184
-0.0233299
-0.0230288
-0.0227374
-0.0224308
-0.0221325
-0.0218671
-0.0215186
-0.0211923
-0.020945
-0.0205957
-0.0202388
-0.0199575
-0.0196348
-0.0193161
-0.0189648
-0.0185707
-0.0182929
-0.017983
-0.0175379
-0.0171842
-0.0168784
-0.0164798
-0.0160894
-0.0157148
-0.0153056
-0.0149116
-0.0145166
-0.0140904
-0.0136563
-0.0132232
-0.0127908
-0.0123432
-0.0118748
-0.011404
-0.0109365
-0.0104484
-0.00995008
-0.00945057
-0.00894166
-0.0084176
-0.00789672
-0.00736379
-0.00683672
-0.00629807
-0.00578926
-0.00528417
-0.0048575
-0.00447669
-0.0326419
-0.030934
-0.0291226
-0.0277119
-0.0268362
-0.0264065
-0.0262336
-0.0261544
-0.0260926
-0.026061
-0.0260953
-0.0262355
-0.0264929
-0.0268547
-0.0272762
-0.0277101
-0.0281183
-0.028468
-0.028758
-0.029022
-0.0293205
-0.0296757
-0.0301018
-0.0305968
-0.0311352
-0.0316727
-0.0321248
-0.0323949
-0.0323867
-0.0320915
-0.0316004
-0.0309798
-0.0303143
-0.0296807
-0.0290803
-0.0285497
-0.0280701
-0.0276394
-0.0272731
-0.0269045
-0.0265913
-0.02634
-0.0260649
-0.0258135
-0.0255689
-0.0252685
-0.0249896
-0.0247205
-0.0244241
-0.0241759
-0.0239159
-0.0236165
-0.0233283
-0.0230276
-0.0227363
-0.0224293
-0.0221313
-0.0218664
-0.0215174
-0.0211909
-0.0209445
-0.0205949
-0.0202378
-0.0199567
-0.0196341
-0.0193156
-0.0189642
-0.0185698
-0.0182924
-0.0179828
-0.0175372
-0.0171836
-0.0168782
-0.0164794
-0.016089
-0.0157146
-0.0153053
-0.0149113
-0.0145165
-0.0140902
-0.0136561
-0.0132231
-0.0127907
-0.0123431
-0.0118747
-0.0114039
-0.0109364
-0.0104484
-0.00995
-0.00945051
-0.00894161
-0.00841754
-0.00789668
-0.00736373
-0.00683669
-0.00629797
-0.00578923
-0.00528396
-0.00485711
-0.0044765
-0.0328921
-0.0312043
-0.0293626
-0.0279079
-0.0269817
-0.0265039
-0.0262921
-0.026187
-0.0261115
-0.0260766
-0.0261157
-0.0262639
-0.0265283
-0.0268949
-0.027319
-0.0277537
-0.0281602
-0.0285079
-0.0287977
-0.0290612
-0.0293542
-0.0296988
-0.0301102
-0.0305852
-0.0311001
-0.0316131
-0.0320417
-0.0322984
-0.0322941
-0.0320139
-0.0315406
-0.0309374
-0.0302868
-0.029664
-0.0290704
-0.0285426
-0.0280635
-0.0276331
-0.0272682
-0.0269032
-0.0265918
-0.0263405
-0.0260649
-0.025811
-0.0255655
-0.0252657
-0.0249873
-0.0247189
-0.0244221
-0.024174
-0.0239138
-0.0236138
-0.0233258
-0.0230251
-0.0227343
-0.0224276
-0.0221291
-0.0218647
-0.0215158
-0.0211888
-0.0209427
-0.0205936
-0.0202366
-0.0199554
-0.0196324
-0.0193142
-0.0189633
-0.0185685
-0.0182912
-0.0179819
-0.0175363
-0.0171828
-0.0168773
-0.0164784
-0.0160884
-0.0157139
-0.0153046
-0.0149107
-0.014516
-0.0140897
-0.0136556
-0.0132227
-0.0127903
-0.0123428
-0.0118744
-0.0114036
-0.0109362
-0.0104482
-0.0099498
-0.00945033
-0.00894148
-0.00841737
-0.00789656
-0.00736355
-0.00683655
-0.00629768
-0.00578894
-0.00528345
-0.00485553
-0.00447523
-0.0331459
-0.0314818
-0.0296305
-0.0281386
-0.0271531
-0.0266092
-0.0263399
-0.0261954
-0.0260999
-0.0260622
-0.0261114
-0.0262754
-0.026554
-0.0269301
-0.0273612
-0.0277994
-0.0282047
-0.0285494
-0.0288406
-0.0291033
-0.0293875
-0.0297185
-0.0301097
-0.0305593
-0.0310422
-0.0315231
-0.0319236
-0.0321629
-0.0321651
-0.0319065
-0.0314582
-0.0308797
-0.0302481
-0.0296392
-0.0290561
-0.0285328
-0.0280577
-0.0276271
-0.0272608
-0.0269021
-0.0265914
-0.0263399
-0.0260665
-0.0258083
-0.0255615
-0.0252616
-0.0249826
-0.024717
-0.0244201
-0.0241708
-0.0239102
-0.0236103
-0.0233229
-0.0230206
-0.0227306
-0.022426
-0.0221252
-0.0218608
-0.021515
-0.0211862
-0.0209378
-0.0205911
-0.0202361
-0.0199538
-0.0196289
-0.0193111
-0.0189625
-0.0185677
-0.0182881
-0.0179791
-0.0175356
-0.0171818
-0.0168748
-0.0164765
-0.0160874
-0.0157126
-0.015303
-0.0149095
-0.0145149
-0.0140885
-0.0136546
-0.0132218
-0.0127895
-0.0123419
-0.0118737
-0.0114029
-0.0109357
-0.0104476
-0.0099493
-0.00944984
-0.00894108
-0.00841692
-0.00789621
-0.00736309
-0.00683612
-0.00629711
-0.0057881
-0.00528254
-0.00485215
-0.00447208
-0.0333645
-0.0317468
-0.0299173
-0.0284051
-0.027358
-0.026732
-0.0263858
-0.0261871
-0.0260647
-0.0260243
-0.0260878
-0.0262752
-0.0265754
-0.0269655
-0.027407
-0.027851
-0.0282545
-0.0285949
-0.0288863
-0.0291448
-0.0294171
-0.0297321
-0.0301006
-0.0305211
-0.0309664
-0.0314114
-0.031782
-0.0320037
-0.0320151
-0.0317836
-0.0313672
-0.0308191
-0.0302094
-0.0296149
-0.0290418
-0.0285227
-0.0280529
-0.0276234
-0.0272556
-0.026903
-0.0265919
-0.0263402
-0.0260695
-0.025805
-0.0255561
-0.0252569
-0.0249765
-0.0247149
-0.0244195
-0.0241674
-0.0239044
-0.023604
-0.0233195
-0.0230165
-0.0227258
-0.0224239
-0.0221193
-0.0218546
-0.0215155
-0.0211834
-0.0209295
-0.0205876
-0.0202363
-0.0199516
-0.0196237
-0.019306
-0.0189613
-0.0185674
-0.0182831
-0.0179741
-0.0175352
-0.0171808
-0.0168706
-0.0164734
-0.0160861
-0.0157106
-0.0153004
-0.0149073
-0.014513
-0.0140866
-0.0136528
-0.0132201
-0.012788
-0.0123404
-0.0118723
-0.0114017
-0.0109346
-0.0104464
-0.00994835
-0.00944888
-0.00894028
-0.00841607
-0.00789548
-0.00736225
-0.00683523
-0.00629617
-0.00578647
-0.00528111
-0.00484679
-0.00446666
-0.0335367
-0.0319929
-0.0302228
-0.0287145
-0.0276111
-0.0268903
-0.0264474
-0.0261784
-0.026021
-0.0259754
-0.0260555
-0.0262715
-0.0265995
-0.027008
-0.0274625
-0.0279134
-0.0283147
-0.0286495
-0.0289368
-0.0291873
-0.0294453
-0.0297423
-0.0300859
-0.030474
-0.0308796
-0.0312866
-0.0316279
-0.0318341
-0.0318554
-0.0316541
-0.0312736
-0.0307594
-0.0301759
-0.0295968
-0.0290318
-0.0285148
-0.0280468
-0.0276191
-0.0272525
-0.0269068
-0.0265951
-0.0263415
-0.026073
-0.0258012
-0.0255493
-0.0252515
-0.0249696
-0.0247123
-0.0244194
-0.0241651
-0.0238985
-0.0235952
-0.0233144
-0.0230126
-0.0227209
-0.0224215
-0.0221124
-0.0218471
-0.021516
-0.0211798
-0.0209196
-0.0205839
-0.0202366
-0.0199486
-0.0196174
-0.0192998
-0.01896
-0.0185673
-0.0182767
-0.0179674
-0.017535
-0.0171796
-0.0168647
-0.0164692
-0.0160845
-0.0157079
-0.0152968
-0.0149044
-0.0145105
-0.014084
-0.0136503
-0.0132179
-0.0127858
-0.0123382
-0.0118703
-0.0113999
-0.0109329
-0.0104448
-0.00994696
-0.00944746
-0.00893907
-0.00841484
-0.00789435
-0.00736104
-0.00683384
-0.00629485
-0.00578405
-0.00527904
-0.00483972
-0.00445925
-0.0336342
-0.0322125
-0.0305462
-0.0290708
-0.0279207
-0.0270937
-0.0265329
-0.0261757
-0.0259739
-0.0259208
-0.0260195
-0.0262686
-0.0266296
-0.0270615
-0.0275315
-0.0279887
-0.0283883
-0.0287157
-0.0289944
-0.029234
-0.029475
-0.0297511
-0.0300657
-0.0304195
-0.0307857
-0.0311552
-0.0314702
-0.0316629
-0.0316942
-0.0315225
-0.0311773
-0.0306991
-0.0301455
-0.0295842
-0.0290292
-0.0285118
-0.0280399
-0.0276114
-0.0272466
-0.0269118
-0.0266016
-0.0263422
-0.026075
-0.025797
-0.025542
-0.0252464
-0.0249619
-0.0247076
-0.024418
-0.0241625
-0.0238939
-0.0235866
-0.0233074
-0.0230075
-0.0227152
-0.0224184
-0.0221061
-0.0218396
-0.0215154
-0.0211751
-0.0209091
-0.0205805
-0.0202369
-0.0199446
-0.0196104
-0.0192931
-0.0189584
-0.018567
-0.0182692
-0.0179598
-0.0175352
-0.0171783
-0.0168577
-0.0164644
-0.016083
-0.0157048
-0.0152926
-0.014901
-0.0145076
-0.0140809
-0.0136474
-0.0132153
-0.0127834
-0.0123355
-0.011868
-0.0113978
-0.010931
-0.0104428
-0.00994526
-0.00944574
-0.00893755
-0.00841333
-0.0078929
-0.00735957
-0.00683205
-0.00629323
-0.00578099
-0.00527628
-0.00483148
-0.00445052
-0.0336396
-0.0324026
-0.0308865
-0.0294711
-0.0282782
-0.0273314
-0.0266321
-0.0261701
-0.0259161
-0.0258567
-0.0259793
-0.0262665
-0.026665
-0.027125
-0.0276121
-0.0280741
-0.0284715
-0.0287901
-0.0290572
-0.0292833
-0.0295037
-0.0297554
-0.0300386
-0.0303574
-0.0306856
-0.0310204
-0.0313116
-0.0314925
-0.0315347
-0.0313899
-0.0310776
-0.0306357
-0.0301121
-0.0295709
-0.0290294
-0.0285123
-0.0280352
-0.0276032
-0.0272361
-0.0269136
-0.0266086
-0.0263419
-0.0260748
-0.0257909
-0.0255337
-0.0252431
-0.0249547
-0.0247017
-0.0244149
-0.0241571
-0.0238886
-0.0235793
-0.0233005
-0.0230015
-0.0227076
-0.0224145
-0.0221002
-0.0218314
-0.0215143
-0.0211702
-0.0208975
-0.0205765
-0.0202371
-0.0199403
-0.019603
-0.0192856
-0.0189563
-0.018567
-0.0182614
-0.0179514
-0.0175353
-0.017177
-0.01685
-0.0164592
-0.0160814
-0.0157014
-0.0152879
-0.0148974
-0.0145046
-0.0140776
-0.0136442
-0.0132124
-0.0127807
-0.0123327
-0.0118654
-0.0113954
-0.0109289
-0.0104407
-0.00994335
-0.00944384
-0.00893583
-0.00841167
-0.00789121
-0.00735793
-0.00682993
-0.00629135
-0.00577742
-0.00527284
-0.00482261
-0.00444101
-0.0336937
-0.0325919
-0.0312552
-0.0299112
-0.0286613
-0.0275769
-0.0267244
-0.0261483
-0.02584
-0.0257795
-0.0259339
-0.0262643
-0.0267042
-0.0271955
-0.0277
-0.0281655
-0.0285589
-0.0288672
-0.0291202
-0.0293303
-0.0295264
-0.0297506
-0.0300035
-0.0302869
-0.0305791
-0.0308827
-0.0311504
-0.0313217
-0.0313746
-0.0312547
-0.0309745
-0.0305675
-0.0300729
-0.0295508
-0.0290229
-0.0285086
-0.028031
-0.0275985
-0.0272258
-0.0269105
-0.0266105
-0.0263398
-0.0260743
-0.0257818
-0.0255209
-0.0252383
-0.0249486
-0.0246972
-0.0244118
-0.0241492
-0.0238803
-0.0235711
-0.0232944
-0.0229948
-0.0226983
-0.0224111
-0.0220937
-0.0218203
-0.0215131
-0.0211666
-0.0208846
-0.0205709
-0.0202371
-0.019936
-0.0195955
-0.019277
-0.0189528
-0.0185674
-0.0182538
-0.0179416
-0.0175346
-0.0171758
-0.016842
-0.0164534
-0.0160796
-0.0156977
-0.0152827
-0.0148934
-0.0145014
-0.014074
-0.0136406
-0.0132092
-0.0127778
-0.0123296
-0.0118625
-0.0113928
-0.0109265
-0.0104383
-0.00994122
-0.00944178
-0.00893389
-0.00840986
-0.00788928
-0.00735617
-0.0068275
-0.00628926
-0.00577342
-0.00526873
-0.00481345
-0.00443093
-0.0338334
-0.0328493
-0.0316926
-0.0303908
-0.0290448
-0.0278009
-0.0267906
-0.0261021
-0.0257449
-0.0256918
-0.025887
-0.0262662
-0.0267517
-0.0272776
-0.027799
-0.0282661
-0.0286527
-0.0289474
-0.0291818
-0.0293728
-0.0295424
-0.0297377
-0.0299617
-0.0302102
-0.0304695
-0.0307442
-0.0309892
-0.0311513
-0.0312119
-0.0311153
-0.0308665
-0.0304948
-0.0300305
-0.0295254
-0.0290068
-0.0284951
-0.0280217
-0.0275951
-0.0272193
-0.0269062
-0.0266076
-0.0263348
-0.0260745
-0.0257737
-0.0255039
-0.0252274
-0.0249408
-0.0246942
-0.0244111
-0.0241419
-0.0238704
-0.0235607
-0.0232869
-0.0229875
-0.0226885
-0.0224084
-0.0220877
-0.0218073
-0.021511
-0.0211635
-0.0208708
-0.0205647
-0.0202373
-0.0199315
-0.0195876
-0.0192677
-0.0189486
-0.018568
-0.0182462
-0.0179307
-0.0175336
-0.017175
-0.0168333
-0.0164468
-0.0160777
-0.0156938
-0.0152771
-0.0148891
-0.0144978
-0.0140701
-0.0136367
-0.0132056
-0.0127746
-0.0123262
-0.0118594
-0.01139
-0.010924
-0.0104357
-0.00993887
-0.00943957
-0.00893174
-0.00840795
-0.00788711
-0.00735431
-0.00682474
-0.00628697
-0.005769
-0.00526398
-0.00480416
-0.00442026
-0.0340639
-0.0332861
-0.0322527
-0.0309011
-0.0293954
-0.0279688
-0.0268058
-0.026017
-0.025625
-0.0255922
-0.0258394
-0.0262759
-0.026814
-0.0273788
-0.0279165
-0.0283828
-0.0287589
-0.0290355
-0.0292449
-0.0294124
-0.0295544
-0.0297197
-0.0299139
-0.0301304
-0.0303609
-0.0306088
-0.0308337
-0.0309848
-0.0310485
-0.0309718
-0.0307522
-0.030418
-0.0299867
-0.0294982
-0.028987
-0.0284758
-0.0280042
-0.0275861
-0.0272117
-0.0269021
-0.0266071
-0.0263295
-0.026073
-0.0257683
-0.0254876
-0.025214
-0.0249285
-0.0246874
-0.0244117
-0.0241367
-0.023862
-0.0235502
-0.0232766
-0.0229808
-0.0226793
-0.0224027
-0.0220816
-0.0217959
-0.0215087
-0.0211596
-0.0208555
-0.0205579
-0.0202384
-0.0199268
-0.0195786
-0.019258
-0.0189448
-0.0185688
-0.0182376
-0.0179189
-0.0175333
-0.0171746
-0.0168236
-0.0164395
-0.0160761
-0.0156899
-0.015271
-0.0148843
-0.0144942
-0.0140661
-0.0136326
-0.0132019
-0.0127713
-0.0123227
-0.0118561
-0.0113871
-0.0109213
-0.010433
-0.00993637
-0.00943726
-0.00892942
-0.00840596
-0.0078847
-0.00735237
-0.00682167
-0.00628446
-0.00576417
-0.00525863
-0.00479478
-0.00440898
-0.0348845
-0.0340979
-0.032966
-0.0314075
-0.0296631
-0.0280343
-0.0267298
-0.0258638
-0.0254611
-0.0254695
-0.0257849
-0.0262906
-0.02689
-0.027498
-0.0280535
-0.0285176
-0.0288803
-0.0291362
-0.0293145
-0.0294505
-0.0295623
-0.0296944
-0.029856
-0.0300453
-0.0302536
-0.0304796
-0.0306881
-0.0308273
-0.0308891
-0.0308265
-0.0306318
-0.0303335
-0.0299358
-0.0294667
-0.0289668
-0.0284576
-0.0279841
-0.0275713
-0.0271983
-0.0268943
-0.0266097
-0.0263264
-0.0260678
-0.0257606
-0.0254725
-0.0252057
-0.0249168
-0.024674
-0.0244097
-0.0241313
-0.0238533
-0.0235399
-0.0232644
-0.0229751
-0.0226715
-0.0223934
-0.022073
-0.0217852
-0.0215067
-0.0211552
-0.0208393
-0.0205501
-0.0202388
-0.0199214
-0.0195689
-0.0192476
-0.0189408
-0.0185698
-0.0182277
-0.0179055
-0.0175331
-0.0171744
-0.0168127
-0.0164313
-0.0160744
-0.0156856
-0.0152642
-0.0148791
-0.0144903
-0.0140617
-0.013628
-0.0131978
-0.0127678
-0.0123188
-0.0118524
-0.0113839
-0.0109184
-0.01043
-0.00993357
-0.00943476
-0.00892682
-0.00840378
-0.007882
-0.00735023
-0.00681826
-0.0062816
-0.00575893
-0.00525264
-0.00478525
-0.00439708
-0.036332
-0.0353639
-0.0338252
-0.0318565
-0.0297907
-0.027944
-0.026515
-0.0256059
-0.0252273
-0.0253071
-0.0257116
-0.0263014
-0.0269705
-0.0276255
-0.0282032
-0.0286678
-0.029017
-0.0292523
-0.0293955
-0.0294901
-0.0295651
-0.0296574
-0.0297826
-0.0299476
-0.0301431
-0.0303547
-0.0305508
-0.0306816
-0.0307364
-0.0306828
-0.0305091
-0.03024
-0.0298735
-0.0294265
-0.0289418
-0.0284389
-0.0279672
-0.0275583
-0.0271848
-0.0268832
-0.0266085
-0.0263232
-0.0260607
-0.0257491
-0.0254545
-0.0251998
-0.0249126
-0.024662
-0.0244044
-0.024124
-0.0238422
-0.0235279
-0.0232518
-0.0229691
-0.0226643
-0.0223851
-0.022064
-0.0217719
-0.0215024
-0.0211506
-0.0208239
-0.0205431
-0.020238
-0.0199137
-0.0195591
-0.0192371
-0.0189353
-0.0185707
-0.0182183
-0.0178908
-0.017532
-0.0171742
-0.0168015
-0.0164226
-0.0160724
-0.0156809
-0.015257
-0.0148735
-0.014486
-0.014057
-0.013623
-0.0131933
-0.012764
-0.0123147
-0.0118484
-0.0113804
-0.0109152
-0.0104269
-0.00993046
-0.00943208
-0.00892394
-0.00840145
-0.00787903
-0.00734788
-0.00681457
-0.00627835
-0.00575336
-0.00524605
-0.00477552
-0.00438464
-0.038566
-0.037039
-0.0347597
-0.0321983
-0.0297337
-0.0276547
-0.0261251
-0.025215
-0.0249036
-0.0250885
-0.0256056
-0.0262962
-0.0270419
-0.027748
-0.0283532
-0.0288247
-0.0291632
-0.0293792
-0.0294875
-0.0295362
-0.0295668
-0.0296108
-0.0296924
-0.0298297
-0.0300178
-0.0302211
-0.030411
-0.0305406
-0.0305881
-0.0305423
-0.0303865
-0.0301407
-0.0298017
-0.029377
-0.0289062
-0.0284099
-0.0279465
-0.0275463
-0.0271772
-0.0268761
-0.0266037
-0.0263165
-0.0260503
-0.0257355
-0.0254316
-0.0251855
-0.0249096
-0.0246568
-0.0244008
-0.0241147
-0.0238294
-0.0235158
-0.0232378
-0.022959
-0.0226535
-0.0223779
-0.0220587
-0.0217573
-0.0214946
-0.0211448
-0.0208072
-0.0205358
-0.0202384
-0.0199052
-0.0195483
-0.0192261
-0.0189281
-0.0185706
-0.0182094
-0.0178757
-0.0175297
-0.0171734
-0.0167899
-0.0164134
-0.0160701
-0.0156758
-0.0152493
-0.0148675
-0.0144815
-0.0140521
-0.0136176
-0.0131884
-0.0127599
-0.0123104
-0.011844
-0.0113767
-0.0109118
-0.0104236
-0.00992708
-0.00942929
-0.00892082
-0.00839897
-0.00787584
-0.00734529
-0.00681067
-0.00627463
-0.0057475
-0.00523885
-0.00476551
-0.00437166
-0.0407713
-0.0387707
-0.0356777
-0.0324177
-0.0294928
-0.0271697
-0.025566
-0.0246976
-0.0244962
-0.0248158
-0.025468
-0.0262743
-0.0271023
-0.0278614
-0.0284953
-0.0289783
-0.0293096
-0.0295081
-0.0295866
-0.0295955
-0.0295794
-0.0295684
-0.0295981
-0.0296979
-0.0298727
-0.0300678
-0.0302583
-0.030395
-0.030443
-0.0304069
-0.0302657
-0.0300387
-0.0297219
-0.0293183
-0.0288609
-0.0283718
-0.0279172
-0.0275273
-0.0271719
-0.026874
-0.0266034
-0.0263105
-0.0260331
-0.0257204
-0.0254079
-0.0251627
-0.0248993
-0.0246505
-0.0244001
-0.0241039
-0.0238152
-0.0235089
-0.0232244
-0.0229455
-0.0226395
-0.0223665
-0.0220538
-0.0217444
-0.0214854
-0.0211398
-0.0207892
-0.0205235
-0.0202382
-0.0198995
-0.0195373
-0.0192133
-0.0189203
-0.0185705
-0.0181993
-0.0178592
-0.0175278
-0.0171732
-0.0167771
-0.016403
-0.0160675
-0.0156708
-0.015241
-0.0148606
-0.0144764
-0.014047
-0.0136118
-0.013183
-0.0127555
-0.0123058
-0.0118391
-0.0113727
-0.010908
-0.01042
-0.00992336
-0.00942633
-0.00891742
-0.00839628
-0.0078724
-0.00734234
-0.0068065
-0.0062703
-0.0057413
-0.00523096
-0.00475509
-0.00435819
-0.042967
-0.0404171
-0.0365069
-0.0325259
-0.0291169
-0.0265469
-0.0248899
-0.024096
-0.0240355
-0.0245116
-0.025315
-0.026246
-0.0271604
-0.0279703
-0.0286296
-0.0291234
-0.0294485
-0.0296301
-0.0296849
-0.0296644
-0.0296064
-0.0295419
-0.0295189
-0.029573
-0.0297196
-0.029901
-0.0300919
-0.0302399
-0.030299
-0.0302763
-0.030148
-0.0299337
-0.0296311
-0.0292457
-0.0288058
-0.0283321
-0.027887
-0.0275045
-0.027163
-0.0268672
-0.026604
-0.0263086
-0.0260122
-0.0257043
-0.0253885
-0.0251409
-0.0248842
-0.0246341
-0.0243953
-0.0240919
-0.0237968
-0.0235038
-0.0232135
-0.0229338
-0.0226291
-0.0223507
-0.0220427
-0.0217306
-0.0214747
-0.0211359
-0.0207751
-0.0205089
-0.0202325
-0.0198931
-0.0195276
-0.0191992
-0.0189116
-0.0185722
-0.018189
-0.0178396
-0.0175246
-0.0171741
-0.0167646
-0.016391
-0.0160636
-0.0156657
-0.0152331
-0.0148531
-0.0144705
-0.0140416
-0.0136057
-0.0131772
-0.0127507
-0.012301
-0.0118339
-0.0113686
-0.010904
-0.0104163
-0.00991932
-0.00942315
-0.00891373
-0.00839328
-0.00786869
-0.00733894
-0.00680207
-0.00626534
-0.00573475
-0.00522242
-0.00474424
-0.0043444
-0.0451137
-0.0419052
-0.0372056
-0.0325454
-0.0286738
-0.0258685
-0.0241695
-0.0234665
-0.0235617
-0.0242072
-0.0251675
-0.0262227
-0.0272236
-0.0280818
-0.0287642
-0.0292637
-0.0295792
-0.0297397
-0.0297712
-0.029724
-0.0296309
-0.0295259
-0.0294623
-0.0294747
-0.0295826
-0.0297424
-0.0299231
-0.0300749
-0.0301491
-0.0301451
-0.030034
-0.0298285
-0.0295323
-0.0291557
-0.0287324
-0.0282824
-0.0278564
-0.0274866
-0.0271554
-0.0268562
-0.0265957
-0.0263024
-0.02599
-0.0256857
-0.0253727
-0.025124
-0.024873
-0.0246143
-0.024381
-0.0240787
-0.0237759
-0.0234895
-0.0231972
-0.0229235
-0.0226256
-0.0223377
-0.0220283
-0.0217141
-0.021459
-0.021127
-0.0207637
-0.0204994
-0.0202248
-0.0198807
-0.0195168
-0.0191856
-0.0188999
-0.0185722
-0.0181812
-0.0178202
-0.0175176
-0.017173
-0.0167539
-0.0163798
-0.0160574
-0.015659
-0.0152252
-0.0148455
-0.0144639
-0.0140358
-0.0135992
-0.013171
-0.0127456
-0.0122958
-0.0118282
-0.011364
-0.0108996
-0.0104122
-0.00991487
-0.0094196
-0.0089097
-0.00838986
-0.00786472
-0.00733507
-0.00679737
-0.00625979
-0.00572784
-0.00521331
-0.00473299
-0.00433023
-0.0470433
-0.0431899
-0.0377735
-0.0325176
-0.0282399
-0.025224
-0.0234874
-0.0228727
-0.0231222
-0.023936
-0.0250461
-0.0262154
-0.0272976
-0.0282042
-0.0289104
-0.0294107
-0.0297099
-0.0298426
-0.0298445
-0.0297653
-0.0296389
-0.0295081
-0.0294205
-0.0294052
-0.029479
-0.0296136
-0.0297727
-0.0299141
-0.0299967
-0.030012
-0.0299237
-0.0297286
-0.0294373
-0.02906
-0.0286409
-0.0282117
-0.0278124
-0.0274674
-0.0271558
-0.0268582
-0.026588
-0.0262892
-0.0259647
-0.0256605
-0.0253544
-0.0251079
-0.0248684
-0.0246055
-0.0243646
-0.0240638
-0.0237591
-0.0234709
-0.0231717
-0.0229057
-0.0226201
-0.0223288
-0.0220195
-0.0217001
-0.0214393
-0.0211124
-0.0207508
-0.0204923
-0.0202198
-0.0198672
-0.0195043
-0.0191737
-0.0188865
-0.0185668
-0.0181734
-0.0178056
-0.0175102
-0.0171673
-0.0167422
-0.0163709
-0.0160513
-0.0156507
-0.0152166
-0.0148376
-0.0144568
-0.0140297
-0.013592
-0.0131641
-0.0127401
-0.0122904
-0.0118219
-0.011359
-0.0108949
-0.0104077
-0.00991009
-0.00941569
-0.00890548
-0.00838606
-0.00786059
-0.00733078
-0.0067924
-0.00625373
-0.00572049
-0.00520366
-0.00472122
-0.00431562
-0.0486829
-0.044248
-0.038226
-0.032479
-0.027869
-0.0246762
-0.0229066
-0.0223665
-0.0227548
-0.0237213
-0.0249655
-0.0262359
-0.0273904
-0.0283439
-0.0290715
-0.0295678
-0.029844
-0.0299446
-0.0299108
-0.0297934
-0.02963
-0.0294753
-0.0293701
-0.0293384
-0.0293923
-0.0295097
-0.0296514
-0.0297793
-0.0298605
-0.0298822
-0.0298109
-0.0296259
-0.0293425
-0.0289705
-0.0285494
-0.0281312
-0.0277526
-0.0274281
-0.0271455
-0.0268662
-0.0265884
-0.0262806
-0.0259407
-0.0256275
-0.0253269
-0.0250814
-0.0248575
-0.0246049
-0.0243554