/*--------------------------------*- C++ -*----------------------------------*\
  =========                 |
  \\      /  F ield         | OpenFOAM: The Open Source CFD Toolbox
   \\    /   O peration     | Website:  https://openfoam.org
    \\  /    A nd           | Version:  6
     \\/     M anipulation  |
\*---------------------------------------------------------------------------*/
FoamFile
{
    version     2.0;
    format      ascii;
    class       surfaceScalarField;
    location    "0.9";
    object      phi;
}
// * * * * * * * * * * * * * * * * * * * * * * * * * * * * * * * * * * * * * //

dimensions      [0 3 -1 0 0 0 0];

internalField   nonuniform List<scalar> 
9440
(
3.88233e-06
-1.84454e-08
3.88203e-06
3.73533e-08
3.88675e-06
-2.53186e-08
3.89006e-06
3.21003e-08
3.89939e-06
-1.21835e-08
3.90366e-06
3.21365e-08
3.92435e-06
-1.68429e-08
3.92756e-06
1.85033e-08
3.9542e-06
1.85294e-09
3.95311e-06
2.95491e-08
3.99333e-06
9.16298e-09
3.99362e-06
2.68103e-08
4.04726e-06
-3.9287e-09
4.06627e-06
1.07796e-08
4.08862e-06
-1.02899e-08
4.08533e-06
-1.59762e-08
4.08499e-06
-6.19094e-08
4.08965e-06
-7.62692e-08
4.09743e-06
-8.11295e-08
1.82876e-08
3.97633e-06
4.18394e-06
-1.65275e-08
4.19359e-06
2.771e-08
4.1922e-06
-2.39329e-08
4.20602e-06
1.82845e-08
4.20873e-06
-1.48967e-08
4.22462e-06
1.62431e-08
4.23773e-06
-2.99488e-08
4.25386e-06
2.37486e-09
4.26663e-06
-1.09185e-08
4.28168e-06
1.44961e-08
4.28975e-06
1.09159e-09
4.30089e-06
1.56771e-08
4.30207e-06
-5.116e-09
4.3157e-06
-2.84392e-09
4.33502e-06
-2.96111e-08
4.36656e-06
-4.75204e-08
4.39247e-06
-8.78141e-08
4.40874e-06
-9.25393e-08
4.42644e-06
-9.88359e-08
1.6369e-07
4.28104e-06
4.51798e-06
-1.44483e-08
4.52744e-06
1.82577e-08
4.52524e-06
-2.17333e-08
4.53888e-06
4.64468e-09
4.54126e-06
-1.72763e-08
4.55744e-06
5.34349e-11
4.57341e-06
-4.59183e-08
4.58887e-06
-1.30812e-08
4.60509e-06
-2.71425e-08
4.61951e-06
8.37124e-11
4.6325e-06
-1.18976e-08
4.64251e-06
5.66533e-09
4.65052e-06
-1.31317e-08
4.66837e-06
-2.06875e-08
4.69913e-06
-6.03769e-08
4.73519e-06
-8.3582e-08
4.75883e-06
-1.1145e-07
4.76559e-06
-9.92947e-08
4.65102e-06
1.57247e-08
2.07411e-07
4.6073e-06
4.88025e-06
-1.37478e-08
4.88999e-06
8.51972e-09
4.88546e-06
-1.72111e-08
4.90132e-06
-1.12159e-08
4.90182e-06
-1.77705e-08
4.91991e-06
-1.80373e-08
4.935e-06
-6.10139e-08
4.95334e-06
-3.14178e-08
4.97043e-06
-4.42279e-08
4.98739e-06
-1.6878e-08
5.0043e-06
-2.88091e-08
5.01607e-06
-6.10891e-09
5.03315e-06
-3.02096e-08
5.06005e-06
-4.75861e-08
5.09749e-06
-9.78123e-08
5.13489e-06
-1.20984e-07
5.15438e-06
-1.30939e-07
5.14794e-06
-9.28532e-08
4.95834e-06
2.05324e-07
2.14888e-07
4.95086e-06
5.27027e-06
-1.33666e-08
5.28186e-06
-3.07739e-09
5.27368e-06
-9.03102e-09
5.29315e-06
-3.06837e-08
5.2909e-06
-1.55165e-08
5.31277e-06
-3.99064e-08
5.32439e-06
-7.26391e-08
5.3469e-06
-5.39311e-08
5.36373e-06
-6.10566e-08
5.38554e-06
-3.86897e-08
5.40599e-06
-4.92578e-08
5.42523e-06
-2.53505e-08
5.45329e-06
-5.8267e-08
5.4912e-06
-8.54988e-08
5.52715e-06
-1.33755e-07
5.5657e-06
-1.59541e-07
5.57329e-06
-1.38528e-07
5.30632e-06
1.74116e-07
5.33222e-06
1.7943e-07
2.18493e-07
5.32861e-06
5.69119e-06
-1.30955e-08
5.70395e-06
-1.58352e-08
5.69339e-06
1.52228e-09
5.71502e-06
-5.23088e-08
5.71085e-06
-1.13464e-08
5.73664e-06
-6.57e-08
5.74494e-06
-8.09334e-08
5.7708e-06
-7.9799e-08
5.78722e-06
-7.7477e-08
5.81553e-06
-6.69969e-08
5.83932e-06
-7.30441e-08
5.87354e-06
-5.95695e-08
5.91323e-06
-9.79565e-08
5.95756e-06
-1.29828e-07
5.98627e-06
-1.62465e-07
6.02423e-06
-1.97506e-07
5.7315e-06
1.54203e-07
5.72131e-06
1.84309e-07
5.72934e-06
1.71394e-07
2.05216e-07
5.74262e-06
6.14599e-06
-1.32168e-08
6.15819e-06
-2.80333e-08
6.14787e-06
1.18432e-08
6.1689e-06
-7.33445e-08
6.16506e-06
-7.50161e-09
6.19305e-06
-9.36885e-08
6.19954e-06
-8.743e-08
6.22748e-06
-1.07736e-07
6.24433e-06
-9.43229e-08
6.2799e-06
-1.02567e-07
6.30942e-06
-1.02565e-07
6.36239e-06
-1.12541e-07
6.41261e-06
-1.48177e-07
6.4563e-06
-1.7352e-07
6.46969e-06
-1.75856e-07
6.2464e-06
2.57822e-08
6.18144e-06
2.19164e-07
6.16473e-06
2.01027e-07
6.159e-06
1.77117e-07
1.70927e-07
6.19329e-06
6.63743e-06
-1.40898e-08
6.64734e-06
-3.7935e-08
6.64019e-06
1.89905e-08
6.65742e-06
-9.05803e-08
6.65689e-06
-6.96432e-09
6.68464e-06
-1.21443e-07
6.69079e-06
-9.35796e-08
6.72007e-06
-1.3701e-07
6.73852e-06
-1.1278e-07
6.78207e-06
-1.46112e-07
6.82112e-06
-1.41613e-07
6.89142e-06
-1.82843e-07
6.94683e-06
-2.03591e-07
6.98347e-06
-2.10162e-07
6.93277e-06
-1.25149e-07
6.68562e-06
2.72927e-07
6.66539e-06
2.39397e-07
6.6466e-06
2.19821e-07
6.61666e-06
2.07048e-07
-2.16521e-07
7.00411e-06
7.16869e-06
-1.63513e-08
7.1728e-06
-4.20422e-08
7.17446e-06
1.73265e-08
7.18289e-06
-9.90043e-08
7.19048e-06
-1.4561e-08
7.21412e-06
-1.45081e-07
7.2222e-06
-1.01654e-07
7.25203e-06
-1.66843e-07
7.27323e-06
-1.33978e-07
7.32656e-06
-1.99446e-07
7.3737e-06
-1.88752e-07
7.45831e-06
-2.67458e-07
7.50647e-06
-2.51748e-07
7.50215e-06
-2.05842e-07
7.16209e-06
2.14913e-07
7.2038e-06
2.31216e-07
7.19272e-06
2.5048e-07
7.16964e-06
2.42898e-07
7.12671e-06
2.49979e-07
-2.87304e-07
7.19749e-06
7.74342e-06
-2.11662e-08
7.73286e-06
-3.14846e-08
7.75649e-06
-6.30429e-09
7.74671e-06
-8.92231e-08
7.772e-06
-3.98512e-08
7.7826e-06
-1.55678e-07
7.80019e-06
-1.19243e-07
7.82459e-06
-1.91243e-07
7.85541e-06
-1.64797e-07
7.91103e-06
-2.55071e-07
7.967e-06
-2.44718e-07
8.0449e-06
-3.45355e-07
8.03179e-06
-2.38639e-07
7.72667e-06
9.92724e-08
7.72819e-06
2.13393e-07
7.75716e-06
2.02246e-07
7.76625e-06
2.41391e-07
7.75242e-06
2.56734e-07
7.66484e-06
3.3756e-07
-3.93195e-07
7.77073e-06
8.36428e-06
-2.89878e-08
8.33151e-06
1.29163e-09
8.3888e-06
-6.3602e-08
8.3534e-06
-5.38237e-08
8.40607e-06
-9.25178e-08
8.39275e-06
-1.42359e-07
8.43124e-06
-1.5773e-07
8.43926e-06
-1.9926e-07
8.49299e-06
-2.18534e-07
8.52509e-06
-2.87171e-07
8.59158e-06
-3.11201e-07
8.5445e-06
-2.98285e-07
8.38701e-06
-8.11407e-08
8.31368e-06
1.72601e-07
8.33535e-06
1.91724e-07
8.35307e-06
1.84519e-07
8.3849e-06
2.09564e-07
8.40464e-06
2.36998e-07
8.87941e-06
-1.37215e-07
-3.9188e-07
8.8781e-06
9.03167e-06
-3.70105e-08
8.98922e-06
4.37402e-08
9.0619e-06
-1.3628e-07
9.01581e-06
-7.7325e-09
9.08399e-06
-1.60697e-07
9.05491e-06
-1.13285e-07
9.11025e-06
-2.13066e-07
9.10421e-06
-1.93224e-07
9.17663e-06
-2.90947e-07
9.17362e-06
-2.84167e-07
9.20493e-06
-3.42511e-07
9.09459e-06
-1.87939e-07
8.98709e-06
2.63559e-08
8.96477e-06
1.94923e-07
8.98413e-06
1.72363e-07
8.9949e-06
1.73744e-07
9.05131e-06
1.53158e-07
9.11457e-06
1.73732e-07
9.5423e-06
-5.6494e-07
-4.53877e-07
9.6043e-06
9.74702e-06
-3.99264e-08
9.72664e-06
6.41225e-08
9.76856e-06
-1.78209e-07
9.74682e-06
1.40082e-08
9.79647e-06
-2.10345e-07
9.78096e-06
-9.77749e-08
9.82781e-06
-2.5992e-07
9.83083e-06
-1.96235e-07
9.88586e-06
-3.45979e-07
9.8752e-06
-2.73509e-07
9.84249e-06
-3.098e-07
9.74425e-06
-8.97026e-08
9.6751e-06
9.55104e-08
9.67289e-06
1.97131e-07
9.67981e-06
1.65443e-07
9.68221e-06
1.71346e-07
9.77871e-06
5.66625e-08
1.05144e-05
-5.61998e-07
1.04774e-05
-5.2789e-07
-3.47214e-07
1.03707e-05
1.05176e-05
-3.54116e-08
1.05411e-05
4.05617e-08
1.052e-05
-1.57076e-07
1.0549e-05
-1.50346e-08
1.05547e-05
-2.15998e-07
1.05767e-05
-1.19743e-07
1.05924e-05
-2.75628e-07
1.06229e-05
-2.2679e-07
1.06333e-05
-3.56316e-07
1.06311e-05
-2.714e-07
1.05562e-05
-2.3482e-07
1.04675e-05
-1.02704e-09
1.04293e-05
1.33747e-07
1.04389e-05
1.87533e-07
1.04345e-05
1.69829e-07
1.0412e-05
1.93843e-07
1.06069e-05
-1.38299e-07
1.064e-05
-5.95028e-07
1.05194e-05
-4.0728e-07
-4.46807e-07
1.06189e-05
1.13539e-05
-2.71251e-08
1.14048e-05
-1.03699e-08
1.13436e-05
-9.58723e-08
1.14092e-05
-8.06623e-08
1.13815e-05
-1.88238e-07
1.14335e-05
-1.71812e-07
1.14223e-05
-2.64343e-07
1.14689e-05
-2.73451e-07
1.1444e-05
-3.31372e-07
1.14356e-05
-2.6297e-07
1.13361e-05
-1.35329e-07
1.12712e-05
6.38585e-08
1.12472e-05
1.57704e-07
1.12603e-05
1.74405e-07
1.12524e-05
1.77794e-07
1.12163e-05
2.29917e-07
1.14515e-05
-3.73527e-07
1.13736e-05
-5.17052e-07
1.14133e-05
-4.47059e-07
-4.90119e-07
1.14566e-05
1.22634e-05
-2.12101e-08
1.23094e-05
-5.63307e-08
1.22558e-05
-4.2317e-08
1.232e-05
-1.44872e-07
1.22904e-05
-1.58628e-07
1.23436e-05
-2.24983e-07
1.23277e-05
-2.48491e-07
1.23622e-05
-3.07893e-07
1.23262e-05
-2.95402e-07
1.229e-05
-2.26764e-07
1.2192e-05
-3.73589e-08
1.2151e-05
1.04918e-07
1.21339e-05
1.74741e-07
1.2137e-05
1.71354e-07
1.21261e-05
1.88675e-07
1.21327e-05
2.23316e-07
1.23361e-05
-5.76956e-07
1.23409e-05
-5.21837e-07
1.23762e-05
-4.8235e-07
-5.12914e-07
1.2399e-05
1.32499e-05
-2.22004e-08
1.32656e-05
-7.19879e-08
1.32594e-05
-3.61656e-08
1.32883e-05
-1.73696e-07
1.32862e-05
-1.56586e-07
1.33123e-05
-2.51097e-07
1.3312e-05
-2.48178e-07
1.33143e-05
-3.1015e-07
1.32786e-05
-2.59774e-07
1.32092e-05
-1.57333e-07
1.31334e-05
3.84258e-08
1.31029e-05
1.3545e-07
1.30939e-05
1.83769e-07
1.30802e-05
1.84984e-07
1.30596e-05
2.09287e-07
1.31725e-05
1.10465e-07
1.33107e-05
-7.15215e-07
1.33686e-05
-5.79694e-07
1.34021e-05
-5.15848e-07
-5.55676e-07
1.34448e-05
1.4314e-05
-2.94769e-08
1.42995e-05
-5.74853e-08
1.43432e-05
-7.98504e-08
1.43325e-05
-1.63039e-07
1.43618e-05
-1.85863e-07
1.43556e-05
-2.44879e-07
1.43706e-05
-2.63158e-07
1.43408e-05
-2.80334e-07
1.42969e-05
-2.1588e-07
1.42097e-05
-7.01743e-08
1.416e-05
8.81544e-08
1.41293e-05
1.66157e-07
1.4126e-05
1.87014e-07
1.41051e-05
2.05897e-07
1.4065e-05
2.49426e-07
1.43618e-05
-1.86344e-07
1.44002e-05
-7.53602e-07
1.44549e-05
-6.34386e-07
1.45017e-05
-5.62683e-07
-6.13819e-07
1.45598e-05
1.54567e-05
-3.71847e-08
1.54407e-05
-4.14999e-08
1.54931e-05
-1.32199e-07
1.54716e-05
-1.41562e-07
1.55058e-05
-2.20046e-07
1.54879e-05
-2.27014e-07
1.54966e-05
-2.71893e-07
1.54484e-05
-2.32081e-07
1.53869e-05
-1.54422e-07
1.53029e-05
1.38533e-08
1.52683e-05
1.22717e-07
1.52378e-05
1.96658e-07
1.52273e-05
1.97585e-07
1.5203e-05
2.30159e-07
1.52068e-05
2.45617e-07
1.56299e-05
-6.09399e-07
1.55913e-05
-7.15049e-07
1.56255e-05
-6.68604e-07
1.56779e-05
-6.15018e-07
-6.7856e-07
1.57426e-05
1.66839e-05
-3.86089e-08
1.66966e-05
-5.42667e-08
1.67115e-05
-1.47099e-07
1.67141e-05
-1.44161e-07
1.67205e-05
-2.26443e-07
1.67164e-05
-2.22849e-07
1.66956e-05
-2.51137e-07
1.66433e-05
-1.79761e-07
1.65635e-05
-7.46093e-08
1.64978e-05
7.95274e-08
1.64597e-05
1.60867e-07
1.64364e-05
2.19904e-07
1.64077e-05
2.26348e-07
1.63662e-05
2.71622e-07
1.65753e-05
3.65391e-08
1.68306e-05
-8.64761e-07
1.68624e-05
-7.46854e-07
1.68932e-05
-6.99391e-07
1.69435e-05
-6.65305e-07
-7.46313e-07
1.70113e-05
1.80102e-05
-3.44034e-08
1.80449e-05
-8.90041e-08
1.80264e-05
-1.28539e-07
1.8053e-05
-1.70818e-07
1.80318e-05
-2.05253e-07
1.8037e-05
-2.28008e-07
1.79873e-05
-2.01422e-07
1.79339e-05
-1.26382e-07
1.7845e-05
1.42737e-08
1.77964e-05
1.28155e-07
1.77477e-05
2.09583e-07
1.77253e-05
2.42274e-07
1.76853e-05
2.66382e-07
1.76556e-05
3.01269e-07
1.81585e-05
-4.66357e-07
1.81593e-05
-8.65578e-07
1.82074e-05
-7.94882e-07
1.82536e-05
-7.45606e-07
1.83083e-05
-7.19978e-07
-8.1749e-07
1.83794e-05
1.94508e-05
-3.25133e-08
1.94715e-05
-1.09701e-07
1.9466e-05
-1.2307e-07
1.94808e-05
-1.85628e-07
1.94632e-05
-1.87573e-07
1.94469e-05
-2.11709e-07
1.93918e-05
-1.46355e-07
1.93246e-05
-5.91644e-08
1.92487e-05
9.01615e-08
1.9197e-05
1.79862e-07
1.91492e-05
2.57394e-07
1.91075e-05
2.83979e-07
1.90426e-05
3.31204e-07
1.92289e-05
1.15017e-07
1.96353e-05
-8.72772e-07
1.96313e-05
-8.61601e-07
1.96662e-05
-8.298e-07
1.97193e-05
-7.98691e-07
1.97814e-05
-7.82097e-07
-8.94376e-07
1.98583e-05
2.10091e-05
-3.58257e-08
2.10038e-05
-1.04396e-07
2.1028e-05
-1.47235e-07
2.10139e-05
-1.71587e-07
2.10112e-05
-1.84813e-07
2.0961e-05
-1.615e-07
2.09125e-05
-9.78655e-08
2.08288e-05
2.45326e-08
2.07749e-05
1.44008e-07
2.07092e-05
2.45644e-07
2.06641e-05
3.02493e-07
2.06023e-05
3.45727e-07
2.05459e-05
3.87622e-07
2.10676e-05
-4.06654e-07
2.11485e-05
-9.53756e-07
2.11959e-05
-9.08975e-07
2.12429e-05
-8.76766e-07
2.1302e-05
-8.5777e-07
2.13704e-05
-8.50505e-07
-9.77785e-07
2.14538e-05
2.26843e-05
-3.71557e-08
2.26791e-05
-9.92866e-08
2.26969e-05
-1.65026e-07
2.26786e-05
-1.53262e-07
2.26632e-05
-1.69442e-07
2.26026e-05
-1.00896e-07
2.25433e-05
-3.85682e-08
2.24652e-05
1.02672e-07
2.24145e-05
1.94715e-07
2.23511e-05
3.09071e-07
2.22904e-05
3.6316e-07
2.22032e-05
4.32967e-07
2.2368e-05
2.22814e-07
2.28257e-05
-8.64367e-07
2.28372e-05
-9.65289e-07
2.28817e-05
-9.53455e-07
2.29407e-05
-9.35812e-07
2.30093e-05
-9.26311e-07
2.30842e-05
-9.25474e-07
-1.06784e-06
2.31743e-05
2.44887e-05
-3.19371e-08
2.44985e-05
-1.09026e-07
2.44869e-05
-1.53458e-07
2.44819e-05
-1.48277e-07
2.44352e-05
-1.22724e-07
2.43831e-05
-4.87912e-08
2.43008e-05
4.37657e-08
2.42413e-05
1.6213e-07
2.41767e-05
2.59286e-07
2.41303e-05
3.55449e-07
2.40602e-05
4.33296e-07
2.39836e-05
5.09543e-07
2.44591e-05
-2.52652e-07
2.46001e-05
-1.00537e-06
2.46525e-05
-1.01771e-06
2.47074e-05
-1.00831e-06
2.47749e-05
-1.00336e-06
2.48524e-05
-1.00383e-06
2.49347e-05
-1.00771e-06
-1.16524e-06
2.50321e-05
2.64429e-05
-2.52595e-08
2.64518e-05
-1.17981e-07
2.64289e-05
-1.30474e-07
2.64198e-05
-1.39227e-07
2.63587e-05
-6.15837e-08
2.6304e-05
5.90689e-09
2.62157e-05
1.32047e-07
2.61586e-05
2.19205e-07
2.60895e-05
3.2836e-07
2.60493e-05
3.9565e-07
2.59994e-05
4.83193e-07
2.60882e-05
4.20811e-07
2.65366e-05
-7.0107e-07
2.65584e-05
-1.0272e-06
2.66114e-05
-1.07065e-06
2.66809e-05
-1.07781e-06
2.67595e-05
-1.082e-06
2.68457e-05
-1.09007e-06
2.69361e-05
-1.0981e-06
-1.27193e-06
2.70428e-05
2.85584e-05
-2.22976e-08
2.85543e-05
-1.13908e-07
2.85349e-05
-1.11074e-07
2.85041e-05
-1.08402e-07
2.84487e-05
-6.18075e-09
2.83805e-05
7.40346e-08
2.83048e-05
2.07738e-07
2.82345e-05
2.89572e-07
2.8175e-05
3.87805e-07
2.81392e-05
4.31484e-07
2.81565e-05
4.65883e-07
2.84757e-05
1.0157e-07
2.86416e-05
-8.66966e-07
2.86738e-05
-1.05932e-06
2.87335e-05
-1.13038e-06
2.88155e-05
-1.15983e-06
2.89066e-05
-1.17307e-06
2.90029e-05
-1.18641e-06
2.91029e-05
-1.19808e-06
-1.39084e-06
2.92218e-05
3.08415e-05
-2.2099e-08
3.08302e-05
-1.02628e-07
3.08054e-05
-8.62529e-08
3.07604e-05
-6.3394e-08
3.07101e-05
4.41061e-08
3.06414e-05
1.42716e-07
3.05771e-05
2.72029e-07
3.05033e-05
3.63413e-07
3.04536e-05
4.37488e-07
3.04429e-05
4.42177e-07
3.05793e-05
3.29507e-07
3.09403e-05
-2.59497e-07
3.09074e-05
-8.3403e-07
3.09408e-05
-1.09277e-06
3.10214e-05
-1.21097e-06
3.11216e-05
-1.26003e-06
3.12291e-05
-1.2805e-06
3.13402e-05
-1.29757e-06
3.14527e-05
-1.31055e-06
-1.5249e-06
3.15867e-05
3.33054e-05
-2.34268e-08
3.32916e-05
-8.87769e-08
3.3254e-05
-4.86465e-08
3.32077e-05
-1.71297e-08
3.31599e-05
9.1866e-08
3.31091e-05
1.93572e-07
3.30564e-05
3.24696e-07
3.30013e-05
4.18562e-07
3.29657e-05
4.73088e-07
3.30003e-05
4.07568e-07
3.32364e-05
9.33905e-08
3.33955e-05
-4.18573e-07
3.33366e-05
-7.75134e-07
3.3375e-05
-1.13123e-06
3.34766e-05
-1.31253e-06
3.36003e-05
-1.38367e-06
3.37326e-05
-1.41281e-06
3.38691e-05
-1.43411e-06
3.40039e-05
-1.44534e-06
-1.68107e-06
3.41601e-05
3.59682e-05
-2.84725e-08
3.59435e-05
-6.40606e-08
3.59052e-05
-1.0401e-08
3.58576e-05
3.04939e-08
3.58239e-05
1.25559e-07
3.5795e-05
2.22421e-07
3.57751e-05
3.44646e-07
3.5759e-05
4.34627e-07
3.57673e-05
4.64844e-07
3.58614e-05
3.13434e-07
3.5993e-05
-3.81755e-08
3.59665e-05
-3.92095e-07
3.59202e-05
-7.2879e-07
3.59738e-05
-1.18489e-06
3.60934e-05
-1.43216e-06
3.62406e-05
-1.53088e-06
3.64061e-05
-1.57825e-06
3.65817e-05
-1.60973e-06
3.67635e-05
-1.62709e-06
-1.88445e-06
3.69668e-05
3.88426e-05
-3.65999e-08
3.87993e-05
-2.0731e-08
3.87752e-05
1.36634e-08
3.87272e-05
7.84855e-08
3.87176e-05
1.35174e-07
3.87127e-05
2.27333e-07
3.87502e-05
3.07099e-07
3.88025e-05
3.82338e-07
3.88957e-05
3.71667e-07
3.89767e-05
2.32417e-07
3.89382e-05
3.41286e-10
3.87817e-05
-2.35586e-07
3.86973e-05
-6.4443e-07
3.87346e-05
-1.22217e-06
3.8862e-05
-1.55952e-06
3.90297e-05
-1.69866e-06
3.92265e-05
-1.77495e-06
3.94383e-05
-1.82156e-06
3.96718e-05
-1.86057e-06
-2.14636e-06
3.99337e-05
4.19383e-05
-3.98739e-08
4.18871e-05
3.046e-08
4.18704e-05
3.04195e-08
4.184e-05
1.08875e-07
4.18472e-05
1.27989e-07
4.18782e-05
1.96244e-07
4.19751e-05
2.10225e-07
4.21228e-05
2.34694e-07
4.22905e-05
2.03918e-07
4.23498e-05
1.73165e-07
4.22455e-05
1.04618e-07
4.20419e-05
-3.20084e-08
4.18429e-05
-4.45434e-07
4.1728e-05
-1.10728e-06
4.17988e-05
-1.63032e-06
4.19676e-05
-1.86748e-06
4.21631e-05
-1.97039e-06
4.23691e-05
-2.02762e-06
4.257e-05
-2.06145e-06
-2.30306e-06
4.27267e-05
4.52753e-05
-3.20469e-08
4.52336e-05
7.21567e-08
4.52135e-05
5.05595e-08
4.52133e-05
1.09085e-07
4.52309e-05
1.10405e-07
4.52991e-05
1.28022e-07
4.54318e-05
7.75586e-08
4.5643e-05
2.34656e-08
4.58723e-05
-2.53471e-08
4.60303e-05
1.50781e-08
4.60813e-05
5.36479e-08
4.61815e-05
-1.32163e-07
4.63257e-05
-5.89676e-07
4.61677e-05
-9.49303e-07
4.57359e-05
-1.19853e-06
4.53764e-05
-1.50799e-06
4.52249e-05
-1.8189e-06
4.52377e-05
-2.04032e-06
4.53943e-05
-2.21808e-06
-2.62025e-06
4.57115e-05
4.88827e-05
-1.61489e-08
4.88549e-05
9.99384e-08
4.88418e-05
6.36533e-08
4.88636e-05
8.73321e-08
4.88992e-05
7.47706e-08
4.89829e-05
4.4351e-08
4.91106e-05
-5.01668e-08
4.93123e-05
-1.78205e-07
4.96064e-05
-3.19465e-07
5.00296e-05
-4.08073e-07
5.05368e-05
-4.53564e-07
5.09972e-05
-5.92645e-07
5.13207e-05
-9.13102e-07
5.16526e-05
-1.28126e-06
5.20404e-05
-1.58632e-06
5.2313e-05
-1.78056e-06
5.24046e-05
-1.91053e-06
5.23759e-05
-2.01155e-06
5.22364e-05
-2.07861e-06
-2.41419e-06
5.20303e-05
5.2784e-05
2.54355e-09
5.27781e-05
1.05845e-07
5.27809e-05
6.08375e-08
5.28197e-05
4.86013e-08
5.28723e-05
2.21347e-08
5.29547e-05
-3.80361e-08
5.30533e-05
-1.48809e-07
5.32023e-05
-3.27191e-07
5.34872e-05
-6.04401e-07
5.40505e-05
-9.71375e-07
5.48863e-05
-1.28935e-06
5.5651e-05
-1.35731e-06
5.60555e-05
-1.31758e-06
5.62368e-05
-1.46261e-06
5.63242e-05
-1.67366e-06
5.6347e-05
-1.80336e-06
5.62929e-05
-1.85641e-06
5.61862e-05
-1.90494e-06
5.60626e-05
-1.95497e-06
-2.35494e-06
5.60033e-05
5.70008e-05
2.03017e-08
5.7025e-05
8.16577e-08
5.70506e-05
3.51505e-08
5.71026e-05
-3.33715e-09
5.71671e-05
-4.2418e-08
5.72474e-05
-1.18301e-07
5.73359e-05
-2.37295e-07
5.74548e-05
-4.4611e-07
5.76364e-05
-7.86049e-07
5.79279e-05
-1.26284e-06
5.84422e-05
-1.80361e-06
5.93367e-05
-2.25184e-06
6.0405e-05
-2.38593e-06
6.10896e-05
-2.14718e-06
6.11695e-05
-1.75356e-06
6.09114e-05
-1.5452e-06
6.07518e-05
-1.6969e-06
6.07042e-05
-1.85733e-06
6.06795e-05
-1.93021e-06
-2.37773e-06
6.07023e-05
6.15509e-05
4.03481e-08
6.16201e-05
1.24748e-08
6.16592e-05
-4.00964e-09
6.17254e-05
-6.95169e-08
6.17914e-05
-1.08462e-07
6.18836e-05
-2.10496e-07
6.19797e-05
-3.33393e-07
6.21057e-05
-5.72081e-07
6.22355e-05
-9.15816e-07
6.23223e-05
-1.34965e-06
6.22744e-05
-1.75575e-06
6.21107e-05
-2.08815e-06
6.21092e-05
-2.38444e-06
6.26272e-05
-2.66511e-06
6.37177e-05
-2.84412e-06
6.49824e-05
-2.80982e-06
6.58442e-05
-2.55877e-06
6.62673e-05
-2.28042e-06
6.64269e-05
-2.08982e-06
-2.4777e-06
6.65269e-05
6.64504e-05
7.67233e-08
6.66041e-05
-1.41222e-07
6.66088e-05
-8.68982e-09
6.67123e-05
-1.7297e-07
6.67573e-05
-1.53502e-07
6.6883e-05
-3.36225e-07
6.69616e-05
-4.11966e-07
6.70829e-05
-6.93426e-07
6.7113e-05
-9.45854e-07
6.71133e-05
-1.34996e-06
6.70493e-05
-1.69173e-06
6.70432e-05
-2.08205e-06
6.70057e-05
-2.34697e-06
6.68793e-05
-2.53867e-06
6.66071e-05
-2.57198e-06
6.63925e-05
-2.59518e-06
6.64474e-05
-2.61368e-06
6.6814e-05
-2.64703e-06
6.73692e-05
-2.64502e-06
-3.02323e-06
6.79147e-05
7.17602e-05
1.11663e-07
7.19038e-05
-2.84841e-07
7.19494e-05
-5.42205e-08
7.20719e-05
-2.95537e-07
7.21349e-05
-2.16461e-07
7.22541e-05
-4.55385e-07
7.23119e-05
-4.69816e-07
7.23812e-05
-7.62687e-07
7.23546e-05
-9.19324e-07
7.23289e-05
-1.32419e-06
7.22945e-05
-1.65739e-06
7.23725e-05
-2.16005e-06
7.24741e-05
-2.44858e-06
7.2589e-05
-2.65356e-06
7.26389e-05
-2.62185e-06
7.26805e-05
-2.63675e-06
7.27011e-05
-2.6343e-06
7.28101e-05
-2.75598e-06
7.30583e-05
-2.89328e-06
-3.63219e-06
7.36673e-05
7.75113e-05
7.75672e-05
7.77092e-05
7.78287e-05
7.79256e-05
7.79905e-05
7.80116e-05
7.79624e-05
7.78288e-05
7.76259e-05
7.74449e-05
7.7415e-05
7.7533e-05
7.77396e-05
7.8032e-05
7.83472e-05
7.85719e-05
7.85607e-05
7.81794e-05
7.70505e-05
3.87346e-06
1.02869e-07
3.78307e-06
9.03863e-08
3.68797e-06
9.50991e-08
3.58989e-06
9.80862e-08
3.48907e-06
1.00818e-07
3.38578e-06
1.03295e-07
3.28048e-06
1.05295e-07
3.17377e-06
1.06712e-07
3.06599e-06
1.07777e-07
2.95734e-06
1.08656e-07
2.84778e-06
1.09556e-07
2.73699e-06
1.10789e-07
2.62465e-06
1.12346e-07
2.51037e-06
1.14277e-07
2.39411e-06
1.16261e-07
2.27553e-06
1.18577e-07
2.1547e-06
1.20826e-07
2.03193e-06
1.22778e-07
1.90718e-06
1.24742e-07
1.78047e-06
1.26711e-07
1.65246e-06
1.28013e-07
1.525e-06
1.27463e-07
1.40016e-06
1.24837e-07
1.28118e-06
1.18984e-07
1.17219e-06
1.08987e-07
1.07743e-06
9.47606e-08
1.00067e-06
7.67578e-08
9.42964e-07
5.7707e-08
9.01956e-07
4.10074e-08
8.73329e-07
2.86276e-08
8.52915e-07
2.04133e-08
8.37953e-07
1.49621e-08
8.26133e-07
1.18207e-08
8.16059e-07
1.00739e-08
8.06846e-07
9.21324e-09
7.97649e-07
9.19641e-09
7.88593e-07
9.05574e-09
7.79222e-07
9.37101e-09
7.69647e-07
9.57519e-09
7.59881e-07
9.76629e-09
7.49018e-07
1.08631e-08
7.37595e-07
1.14233e-08
7.2601e-07
1.15847e-08
7.14034e-07
1.19761e-08
7.02579e-07
1.14549e-08
6.91777e-07
1.08016e-08
6.80887e-07
1.08905e-08
6.70417e-07
1.04695e-08
6.59953e-07
1.04645e-08
6.49136e-07
1.08169e-08
6.38983e-07
1.0153e-08
6.29188e-07
9.79506e-09
6.19776e-07
9.41139e-09
6.10742e-07
9.03442e-09
6.01805e-07
8.93725e-09
5.93451e-07
8.35417e-09
5.84934e-07
8.51701e-09
5.76749e-07
8.1842e-09
5.69574e-07
7.17545e-09
5.61752e-07
7.82228e-09
5.54224e-07
7.52769e-09
5.48016e-07
6.2078e-09
5.41317e-07
6.69958e-09
5.34525e-07
6.79202e-09
5.28333e-07
6.19144e-09
5.22235e-07
6.09814e-09
5.17099e-07
5.13601e-09
5.11898e-07
5.2011e-09
5.05836e-07
6.06164e-09
5.01169e-07
4.66751e-09
4.97316e-07
3.85252e-09
4.92432e-07
4.88458e-09
4.87942e-07
4.48968e-09
4.84336e-07
3.60639e-09
4.8065e-07
3.68521e-09
4.77197e-07
3.45376e-09
4.74042e-07
3.15445e-09
4.70929e-07
3.11296e-09
4.68142e-07
2.78764e-09
4.65662e-07
2.47927e-09
4.63327e-07
2.33544e-09
4.61145e-07
2.18156e-09
4.59063e-07
2.082e-09
4.57275e-07
1.78856e-09
4.5568e-07
1.59437e-09
4.54198e-07
1.4827e-09
4.52779e-07
1.41868e-09
4.51642e-07
1.1373e-09
4.50552e-07
1.08953e-09
4.49592e-07
9.60082e-10
4.48774e-07
8.17794e-10
4.48093e-07
6.80934e-10
4.47507e-07
5.8671e-10
4.47074e-07
4.32241e-10
4.46865e-07
2.09451e-10
4.46891e-07
-2.63344e-11
4.47347e-07
-4.55972e-10
4.48321e-07
-9.73733e-10
4.50876e-07
-2.55539e-09
-7.25674e-09
4.27495e-06
1.08955e-07
4.28197e-06
8.33707e-08
4.28143e-06
9.56361e-08
4.27498e-06
1.04539e-07
4.26344e-06
1.12355e-07
4.24763e-06
1.19102e-07
4.22861e-06
1.24319e-07
4.20745e-06
1.27868e-07
4.18455e-06
1.30678e-07
4.16014e-06
1.33072e-07
4.13365e-06
1.36044e-07
4.1047e-06
1.39738e-07
4.07239e-06
1.44654e-07
4.03641e-06
1.50253e-07
3.99632e-06
1.56359e-07
3.95175e-06
1.63141e-07
3.90259e-06
1.69986e-07
3.84866e-06
1.76709e-07
3.79024e-06
1.83162e-07
3.72657e-06
1.90386e-07
3.65836e-06
1.96216e-07
3.58571e-06
2.00117e-07
3.5098e-06
2.00749e-07
3.43174e-06
1.97044e-07
3.35315e-06
1.87575e-07
3.27653e-06
1.71376e-07
3.20294e-06
1.50353e-07
3.13507e-06
1.25575e-07
3.07352e-06
1.02554e-07
3.01741e-06
8.47375e-08
2.966e-06
7.18255e-08
2.91767e-06
6.3289e-08
2.87117e-06
5.83294e-08
2.82625e-06
5.49949e-08
2.7818e-06
5.36616e-08
2.73815e-06
5.2843e-08
2.69537e-06
5.18337e-08
2.65239e-06
5.235e-08
2.61133e-06
5.06353e-08
2.57014e-06
5.09569e-08
2.52856e-06
5.24458e-08
2.48829e-06
5.16924e-08
2.44699e-06
5.28827e-08
2.40675e-06
5.22137e-08
2.36778e-06
5.04305e-08
2.32899e-06
4.95944e-08
2.29192e-06
4.79594e-08
2.25532e-06
4.70715e-08
2.21927e-06
4.65102e-08
2.184e-06
4.60839e-08
2.14937e-06
4.47881e-08
2.11637e-06
4.27888e-08
2.08405e-06
4.17313e-08
2.05285e-06
4.02344e-08
2.02314e-06
3.86486e-08
1.99327e-06
3.82288e-08
1.96465e-06
3.71397e-08
1.93822e-06
3.46085e-08
1.91158e-06
3.38149e-08
1.885e-06
3.44064e-08
1.86073e-06
3.17987e-08
1.83794e-06
2.89983e-08
1.8147e-06
2.99392e-08
1.79165e-06
2.98418e-08
1.77019e-06
2.76514e-08
1.75041e-06
2.58786e-08
1.73103e-06
2.45118e-08
1.71114e-06
2.50946e-08
1.69248e-06
2.47194e-08
1.67626e-06
2.08894e-08
1.65994e-06
2.01742e-08
1.64312e-06
2.16978e-08
1.62813e-06
1.94791e-08
1.61452e-06
1.72177e-08
1.6009e-06
1.73111e-08
1.58807e-06
1.62834e-08
1.57625e-06
1.49751e-08
1.56508e-06
1.42827e-08
1.5546e-06
1.32666e-08
1.54496e-06
1.21116e-08
1.53598e-06
1.13233e-08
1.52761e-06
1.05434e-08
1.51978e-06
9.91351e-09
1.51273e-06
8.84545e-09
1.50628e-06
8.04459e-09
1.50032e-06
7.43704e-09
1.49487e-06
6.86829e-09
1.48997e-06
6.04173e-09
1.48559e-06
5.47149e-09
1.48148e-06
5.065e-09
1.47809e-06
4.21252e-09
1.47473e-06
4.03237e-09
1.47225e-06
3.07296e-09
1.46957e-06
3.11562e-09
1.46814e-06
1.63233e-09
1.46632e-06
1.80006e-09
1.46627e-06
-4.11755e-10
1.46622e-06
-9.19525e-10
1.46862e-06
-4.95528e-09
-1.64037e-08
4.61254e-06
1.03721e-07
4.62374e-06
7.21659e-08
4.63072e-06
8.86559e-08
4.63296e-06
1.02305e-07
4.63143e-06
1.1388e-07
4.62754e-06
1.22992e-07
4.62262e-06
1.29241e-07
4.61808e-06
1.32408e-07
4.61426e-06
1.345e-07
4.61144e-06
1.35891e-07
4.60895e-06
1.38531e-07
4.60643e-06
1.42265e-07
4.60301e-06
1.48074e-07
4.59831e-06
1.54949e-07
4.59207e-06
1.62602e-07
4.5838e-06
1.71408e-07
4.57363e-06
1.80158e-07
4.56112e-06
1.89223e-07
4.54675e-06
1.97531e-07
4.5299e-06
2.0723e-07
4.51106e-06
2.15061e-07
4.49003e-06
2.21146e-07
4.46693e-06
2.23847e-07
4.44217e-06
2.21809e-07
4.4154e-06
2.14343e-07
4.38744e-06
1.99331e-07
4.35787e-06
1.79931e-07
4.32777e-06
1.55671e-07
4.29845e-06
1.31872e-07
4.26991e-06
1.13283e-07
4.24237e-06
9.9361e-08
4.21534e-06
9.03177e-08
4.18802e-06
8.56501e-08
4.16059e-06
8.24289e-08
4.1326e-06
8.16529e-08
4.10405e-06
8.13878e-08
4.0755e-06
8.03869e-08
4.04599e-06
8.18603e-08
4.01649e-06
8.01297e-08
3.98669e-06
8.07578e-08
3.95508e-06
8.40637e-08
3.92352e-06
8.32489e-08
3.89092e-06
8.54831e-08
3.85696e-06
8.61712e-08
3.82394e-06
8.34474e-08
3.78981e-06
8.37298e-08
3.75557e-06
8.21996e-08
3.72194e-06
8.07044e-08
3.6867e-06
8.17491e-08
3.65179e-06
8.09882e-08
3.61643e-06
8.01538e-08
3.58095e-06
7.82623e-08
3.5464e-06
7.62885e-08
3.51078e-06
7.5852e-08
3.4763e-06
7.31281e-08
3.44168e-06
7.28478e-08
3.4059e-06
7.29221e-08
3.37274e-06
6.77609e-08
3.33894e-06
6.76168e-08
3.30369e-06
6.96593e-08
3.27103e-06
6.44542e-08
3.23897e-06
6.10616e-08
3.20619e-06
6.27219e-08
3.17392e-06
6.21063e-08
3.14186e-06
5.97111e-08
3.11161e-06
5.61281e-08
3.08244e-06
5.36877e-08
3.05178e-06
5.57573e-08
3.02209e-06
5.44021e-08
2.99541e-06
4.75755e-08
2.96852e-06
4.70576e-08
2.94105e-06
4.91719e-08
2.91539e-06
4.51426e-08
2.89139e-06
4.1211e-08
2.86774e-06
4.09667e-08
2.84485e-06
3.91681e-08
2.82311e-06
3.67185e-08
2.80255e-06
3.48397e-08
2.78297e-06
3.28528e-08
2.76441e-06
3.06675e-08
2.74691e-06
2.88271e-08
2.73039e-06
2.70565e-08
2.71486e-06
2.545e-08
2.70035e-06
2.33493e-08
2.68696e-06
2.14405e-08
2.67431e-06
2.00822e-08
2.66279e-06
1.83924e-08
2.6519e-06
1.69297e-08
2.64221e-06
1.51563e-08
2.63287e-06
1.44069e-08
2.62494e-06
1.21411e-08
2.61704e-06
1.19403e-08
2.61069e-06
9.41876e-09
2.60417e-06
9.63833e-09
2.59941e-06
6.38963e-09
2.59452e-06
6.68869e-09
2.59136e-06
2.74805e-09
2.58927e-06
1.16969e-09
2.5884e-06
-4.08588e-09
-2.23979e-08
4.97984e-06
7.47351e-08
4.99106e-06
6.09498e-08
4.9995e-06
8.02169e-08
5.00294e-06
9.88639e-08
5.00183e-06
1.14985e-07
4.99821e-06
1.26618e-07
4.99383e-06
1.33624e-07
4.9904e-06
1.35832e-07
4.98842e-06
1.36483e-07
4.98811e-06
1.36205e-07
4.98894e-06
1.37694e-07
4.99045e-06
1.40757e-07
4.99202e-06
1.465e-07
4.9932e-06
1.53774e-07
4.99393e-06
1.61868e-07
4.99384e-06
1.71499e-07
4.99319e-06
1.80805e-07
4.99176e-06
1.90659e-07
4.98994e-06
1.99353e-07
4.98765e-06
2.09517e-07
4.98514e-06
2.17575e-07
4.98248e-06
2.23798e-07
4.97949e-06
2.26836e-07
4.97629e-06
2.25011e-07
4.97213e-06
2.18505e-07
4.96678e-06
2.04678e-07
4.95958e-06
1.87132e-07
4.95049e-06
1.64765e-07
4.94056e-06
1.41805e-07
4.93023e-06
1.23611e-07
4.91977e-06
1.09821e-07
4.90928e-06
1.00809e-07
4.89819e-06
9.67355e-08
4.88671e-06
9.39081e-08
4.87486e-06
9.35084e-08
4.86251e-06
9.37304e-08
4.85029e-06
9.26145e-08
4.8377e-06
9.44443e-08
4.82488e-06
9.29466e-08
4.81206e-06
9.35784e-08
4.79804e-06
9.8088e-08
4.78353e-06
9.77609e-08
4.76855e-06
1.0046e-07
4.75206e-06
1.02663e-07
4.73572e-06
9.97853e-08
4.7187e-06
1.00747e-07
4.70065e-06
1.00258e-07
4.68307e-06
9.8284e-08
4.6641e-06
1.00717e-07
4.64472e-06
1.00363e-07
4.62511e-06
9.97631e-08
4.60439e-06
9.89837e-08
4.58397e-06
9.67128e-08
4.56224e-06
9.75836e-08
4.54022e-06
9.51479e-08
4.51848e-06
9.45857e-08
4.49495e-06
9.64473e-08
4.47246e-06
9.02554e-08
4.44976e-06
9.03142e-08
4.42473e-06
9.46869e-08
4.40097e-06
8.82228e-08
4.37751e-06
8.45146e-08
4.35251e-06
8.77285e-08
4.32777e-06
8.68435e-08
4.30254e-06
8.49366e-08
4.27755e-06
8.11254e-08
4.25353e-06
7.77024e-08
4.22785e-06
8.14419e-08
4.20182e-06
8.04304e-08
4.17797e-06
7.14233e-08
4.1536e-06
7.14278e-08
4.12805e-06
7.47266e-08
4.10361e-06
6.95731e-08
4.08006e-06
6.47635e-08
4.05641e-06
6.46155e-08
4.03298e-06
6.25975e-08
4.01013e-06
5.95709e-08
3.98794e-06
5.70306e-08
3.96639e-06
5.44037e-08
3.9453e-06
5.176e-08
3.92503e-06
4.90987e-08
3.90534e-06
4.67442e-08
3.88647e-06
4.43179e-08
3.86823e-06
4.15848e-08
3.85107e-06
3.86078e-08
3.83437e-06
3.67785e-08
3.81885e-06
3.39151e-08
3.80377e-06
3.20131e-08
3.78992e-06
2.89977e-08
3.77642e-06
2.7906e-08
3.76433e-06
2.42359e-08
3.75245e-06
2.38249e-08
3.74196e-06
1.99e-08
3.73178e-06
1.982e-08
3.72294e-06
1.52354e-08
3.71482e-06
1.4806e-08
3.70756e-06
1.00066e-08
3.70258e-06
6.15266e-09
3.69759e-06
9.04053e-10
-2.32705e-08
5.3788e-06
2.45458e-08
5.38982e-06
4.99316e-08
5.399e-06
7.1037e-08
5.40299e-06
9.48795e-08
5.40174e-06
1.16231e-07
5.39762e-06
1.30738e-07
5.39283e-06
1.38418e-07
5.38915e-06
1.39512e-07
5.38716e-06
1.38469e-07
5.38692e-06
1.36443e-07
5.38801e-06
1.36605e-07
5.38982e-06
1.38949e-07
5.39189e-06
1.44424e-07
5.39371e-06
1.51956e-07
5.39524e-06
1.60336e-07
5.39626e-06
1.70486e-07
5.39703e-06
1.80036e-07
5.39744e-06
1.90245e-07
5.39781e-06
1.98985e-07
5.39838e-06
2.08951e-07
5.3992e-06