/*--------------------------------*- C++ -*----------------------------------*\
  =========                 |
  \\      /  F ield         | OpenFOAM: The Open Source CFD Toolbox
   \\    /   O peration     | Website:  https://openfoam.org
    \\  /    A nd           | Version:  6
     \\/     M anipulation  |
\*---------------------------------------------------------------------------*/
FoamFile
{
    version     2.0;
    format      ascii;
    class       volVectorField;
    location    "0.9";
    object      U;
}
// * * * * * * * * * * * * * * * * * * * * * * * * * * * * * * * * * * * * * //

dimensions      [0 1 -1 0 0 0 0];

internalField   nonuniform List<vector> 
4800
(
(0.959117 -0.000103103 0)
(1.04102 7.5884e-05 0)
(0.964892 -0.00010991 0)
(1.04007 8.35077e-05 0)
(0.972257 -1.46465e-05 0)
(1.04073 2.59071e-05 0)
(0.98129 -0.000111823 0)
(1.04294 -6.41033e-05 0)
(0.990526 3.91793e-05 0)
(1.04514 1.7555e-05 0)
(0.998668 9.55293e-05 0)
(1.04621 2.93118e-05 0)
(1.00515 3.69508e-05 0)
(1.04602 -3.5398e-05 0)
(1.01052 -2.1299e-05 0)
(1.0459 -7.74792e-05 0)
(1.0147 -4.33589e-05 0)
(1.04553 -4.13292e-05 0)
(1.01735 8.39821e-05 0)
(1.04367 0.000110589 0)
(0.982345 -0.000172384 0)
(1.01577 0.000308068 0)
(0.988669 -0.000322007 0)
(1.01524 0.000299879 0)
(0.995724 -0.000233044 0)
(1.01639 0.000287573 0)
(1.00453 -0.000382577 0)
(1.02006 8.19352e-05 0)
(1.01238 -0.0002027 0)
(1.02387 0.00015937 0)
(1.01903 -4.73436e-05 0)
(1.02679 0.000166429 0)
(1.02407 -3.69904e-05 0)
(1.02867 9.58898e-05 0)
(1.02775 -8.52928e-05 0)
(1.03035 8.15328e-06 0)
(1.03033 -0.000134166 0)
(1.03158 0.000120075 0)
(1.0313 0.000225818 0)
(1.03134 0.000511799 0)
(0.996003 -0.000255905 0)
(1.0033 0.000591648 0)
(0.999409 -0.00059401 0)
(1.00513 0.000505714 0)
(1.00377 -0.000540789 0)
(1.00834 0.000519679 0)
(1.01029 -0.00083184 0)
(1.01429 0.000205204 0)
(1.01617 -0.000636121 0)
(1.0197 0.000303204 0)
(1.02128 -0.000348228 0)
(1.02385 0.000340084 0)
(1.02518 -0.000233999 0)
(1.02668 0.00028821 0)
(1.02806 -0.000265558 0)
(1.02909 0.000126003 0)
(1.03014 -0.000334 0)
(1.0307 0.000392389 0)
(1.03099 0.000323782 0)
(1.03071 0.00114395 0)
(0.999524 -0.000177425 0)
(1.00078 0.000437324 0)
(1.00158 -0.000503909 0)
(1.00342 0.000129094 0)
(1.0052 -0.000530678 0)
(1.00741 8.80896e-05 0)
(1.01062 -0.00104599 0)
(1.01365 -0.000329222 0)
(1.01648 -0.000838202 0)
(1.01929 -0.000169034 0)
(1.02153 -0.000489005 0)
(1.02355 -2.54975e-05 0)
(1.02518 -0.000341484 0)
(1.02642 2.12151e-05 0)
(1.02786 -0.000347481 0)
(1.02883 -0.000121792 0)
(1.02994 -0.0003643 0)
(1.03053 0.000439188 0)
(1.03087 0.000660703 0)
(1.03072 0.00173224 0)
(1.00007 -6.90096e-05 0)
(1.00048 7.63399e-05 0)
(1.00186 -0.000116248 0)
(1.0032 -0.000522388 0)
(1.00549 -0.000263353 0)
(1.00756 -0.000722964 0)
(1.01047 -0.00110501 0)
(1.01345 -0.00121023 0)
(1.01658 -0.000936278 0)
(1.01923 -0.000995434 0)
(1.02176 -0.000645963 0)
(1.02363 -0.000785567 0)
(1.02529 -0.000520662 0)
(1.02646 -0.000577915 0)
(1.02782 -0.000457212 0)
(1.02879 -0.000565746 0)
(1.02993 -0.000355793 0)
(1.03058 0.00034728 0)
(1.031 0.00104174 0)
(1.03087 0.00189842 0)
(1.00014 -0.000102232 0)
(1.00043 -6.33796e-05 0)
(1.00188 0.000280071 0)
(1.00314 -0.000830322 0)
(1.00553 4.19625e-05 0)
(1.00767 -0.00124093 0)
(1.01045 -0.0011339 0)
(1.01328 -0.00175964 0)
(1.01659 -0.00105386 0)
(1.0192 -0.00152883 0)
(1.02185 -0.000897746 0)
(1.02373 -0.00135766 0)
(1.02538 -0.000788516 0)
(1.02653 -0.00100816 0)
(1.02784 -0.000555149 0)
(1.0288 -0.00077339 0)
(1.03002 -0.000286652 0)
(1.03073 0.000450075 0)
(1.03117 0.00130709 0)
(1.03099 0.00173313 0)
(1.00014 -0.000173558 0)
(1.00046 -8.15337e-05 0)
(1.00184 0.000552453 0)
(1.00314 -0.000782873 0)
(1.0055 0.000321906 0)
(1.00768 -0.00132953 0)
(1.01045 -0.00111478 0)
(1.01323 -0.00182307 0)
(1.01657 -0.00109621 0)
(1.0192 -0.00164294 0)
(1.02185 -0.0010549 0)
(1.02378 -0.00153826 0)
(1.02543 -0.000914838 0)
(1.0266 -0.00103337 0)
(1.02787 -0.000445511 0)
(1.02883 -0.000568385 0)
(1.03021 0.000131838 0)
(1.03095 0.000846445 0)
(1.03134 0.00167018 0)
(1.03105 0.00181693 0)
(1.00013 -0.000354022 0)
(1.0005 -0.000194282 0)
(1.00181 0.000434768 0)
(1.00315 -0.000638228 0)
(1.00546 0.000271877 0)
(1.00763 -0.00122672 0)
(1.01044 -0.00131691 0)
(1.01323 -0.00163962 0)
(1.01657 -0.00136622 0)
(1.01921 -0.00155013 0)
(1.02185 -0.00142097 0)
(1.02381 -0.00146562 0)
(1.02548 -0.00115153 0)
(1.02666 -0.000759926 0)
(1.02792 -0.000454624 0)
(1.02892 -0.00011179 0)
(1.0304 0.000651241 0)
(1.03115 0.00130444 0)
(1.03146 0.00209929 0)
(1.03102 0.00225908 0)
(1.0001 -0.000226896 0)
(1.00058 -0.00122575 0)
(1.00179 0.000386044 0)
(1.0032 -0.00140109 0)
(1.00543 0.000261096 0)
(1.00759 -0.00199923 0)
(1.01043 -0.00137964 0)
(1.01327 -0.00231812 0)
(1.01657 -0.00160418 0)
(1.01924 -0.00230134 0)
(1.02187 -0.00180928 0)
(1.02388 -0.00207789 0)
(1.02557 -0.00141886 0)
(1.02677 -0.00110028 0)
(1.02803 -0.000607438 0)
(1.02918 -0.000365053 0)
(1.03064 0.000653728 0)
(1.03143 0.000838326 0)
(1.03167 0.00213335 0)
(1.03112 0.00232341 0)
(1.00004 0.000281105 0)
(1.00074 -0.00266023 0)
(1.0018 0.000428802 0)
(1.00332 -0.00270682 0)
(1.00541 0.000219605 0)
(1.00762 -0.0033826 0)
(1.01043 -0.00135393 0)
(1.01336 -0.00368816 0)
(1.01659 -0.0018619 0)
(1.01933 -0.0037722 0)
(1.02193 -0.00214441 0)
(1.02403 -0.00328192 0)
(1.02573 -0.00163108 0)
(1.02698 -0.00203999 0)
(1.02822 -0.000915892 0)
(1.02946 -0.0015059 0)
(1.03089 -0.0003102 0)
(1.03181 -0.00072532 0)
(1.03209 0.00126754 0)
(1.03134 0.00179533 0)
(1.00002 0.000540146 0)
(1.00086 -0.00214986 0)
(1.00188 -0.00017441 0)
(1.00343 -0.00239662 0)
(1.00544 -0.000628778 0)
(1.00765 -0.00344213 0)
(1.01048 -0.00193605 0)
(1.01341 -0.00399603 0)
(1.01665 -0.00261747 0)
(1.01941 -0.00434267 0)
(1.02206 -0.00272891 0)
(1.02421 -0.00366479 0)
(1.02598 -0.00184171 0)
(1.0272 -0.00250534 0)
(1.02839 -0.00163894 0)
(1.02965 -0.00254392 0)
(1.0311 -0.00192178 0)
(1.03226 -0.00242552 0)
(1.03279 -0.000445399 0)
(1.03186 0.000696596 0)
(0.999939 -0.000614616 0)
(1.00091 0.00168768 0)
(1.00181 -0.00204661 0)
(1.00348 0.000726014 0)
(1.00533 -0.00269124 0)
(1.00765 -0.00111106 0)
(1.01039 -0.00352317 0)
(1.01341 -0.00225821 0)
(1.01659 -0.00410351 0)
(1.01946 -0.00308209 0)
(1.02213 -0.00382909 0)
(1.02439 -0.00240285 0)
(1.02613 -0.00260931 0)
(1.02727 -0.00201531 0)
(1.02837 -0.00304939 0)
(1.02963 -0.002767 0)
(1.0311 -0.00393481 0)
(1.03262 -0.00342799 0)
(1.03354 -0.00270893 0)
(1.03275 -0.00072155 0)
(0.999705 -0.00153824 0)
(1.0009 0.00451111 0)
(1.00144 -0.00302533 0)
(1.00348 0.00297147 0)
(1.00492 -0.00383494 0)
(1.00762 0.000588093 0)
(1.01005 -0.00435046 0)
(1.01336 -0.00101571 0)
(1.0163 -0.00491214 0)
(1.01949 -0.00205392 0)
(1.02204 -0.00432461 0)
(1.02454 -0.00144335 0)
(1.02597 -0.00351038 0)
(1.02716 -0.00215021 0)
(1.02809 -0.00453834 0)
(1.02944 -0.00337789 0)
(1.03083 -0.00551367 0)
(1.03284 -0.00435955 0)
(1.03398 -0.00420911 0)
(1.03402 -0.00138272 0)
(0.999588 -0.000720346 0)
(1.00074 0.00281052 0)
(1.0011 -0.00193288 0)
(1.00333 0.00151208 0)
(1.00454 -0.00319636 0)
(1.0075 -0.000566162 0)
(1.00972 -0.0039392 0)
(1.01322 -0.00205068 0)
(1.01603 -0.00472972 0)
(1.01951 -0.0027907 0)
(1.02197 -0.00416211 0)
(1.02454 -0.00244748 0)
(1.02568 -0.00448012 0)
(1.02691 -0.00390256 0)
(1.02776 -0.00592511 0)
(1.02922 -0.00514565 0)
(1.03057 -0.00647145 0)
(1.03314 -0.00520505 0)
(1.03495 -0.00405056 0)
(1.03607 -0.000215173 0)
(0.999751 -9.8212e-07 0)
(1.00047 -0.000524519 0)
(1.00113 -0.000770077 0)
(1.00303 -0.00131207 0)
(1.00448 -0.0024476 0)
(1.00727 -0.00264214 0)
(1.00965 -0.00356952 0)
(1.013 -0.00371382 0)
(1.01601 -0.00450622 0)
(1.01947 -0.00408093 0)
(1.02203 -0.00429757 0)
(1.02434 -0.00432958 0)
(1.02549 -0.00569338 0)
(1.02659 -0.00612987 0)
(1.02761 -0.00725681 0)
(1.02913 -0.00710669 0)
(1.03081 -0.00699921 0)
(1.03392 -0.00499378 0)
(1.03656 -0.00256246 0)
(1.03833 0.00157465 0)
(0.999992 0.000285013 0)
(1.00032 -0.00286761 0)
(1.00139 -8.16999e-05 0)
(1.00279 -0.00337583 0)
(1.00466 -0.00178259 0)
(1.00708 -0.00401729 0)
(1.00979 -0.00304191 0)
(1.01284 -0.00474003 0)
(1.01619 -0.00397116 0)
(1.01944 -0.00495755 0)
(1.02215 -0.004371 0)
(1.02406 -0.00603795 0)
(1.02537 -0.00648747 0)
(1.02631 -0.0079402 0)
(1.02764 -0.00796266 0)
(1.02929 -0.0085087 0)
(1.03178 -0.00693016 0)
(1.0354 -0.00423654 0)
(1.03868 -0.000711659 0)
(1.04073 0.003134 0)
(1.00014 0.000228522 0)
(1.00038 -0.00305533 0)
(1.00165 -0.000100189 0)
(1.00273 -0.00359659 0)
(1.00489 -0.00150676 0)
(1.00703 -0.00398482 0)
(1.00995 -0.00272917 0)
(1.0128 -0.00467625 0)
(1.01638 -0.00359238 0)
(1.01942 -0.00509095 0)
(1.02213 -0.00475973 0)
(1.02377 -0.00709689 0)
(1.02524 -0.00732853 0)
(1.02616 -0.00899479 0)
(1.02776 -0.00858294 0)
(1.02973 -0.00907018 0)
(1.03325 -0.00691163 0)
(1.03744 -0.00363691 0)
(1.04111 0.000282775 0)
(1.04321 0.00387188 0)
(1.00015 -0.000136076 0)
(1.00051 -0.00140313 0)
(1.00175 -0.000675257 0)
(1.00278 -0.00229182 0)
(1.00499 -0.00166391 0)
(1.00704 -0.00306874 0)
(1.00999 -0.00294364 0)
(1.01282 -0.00408596 0)
(1.01643 -0.0038141 0)
(1.01931 -0.00510059 0)
(1.02187 -0.00573039 0)
(1.02344 -0.00771311 0)
(1.02501 -0.00840416 0)
(1.02607 -0.00954476 0)
(1.02793 -0.00940722 0)
(1.03039 -0.00906682 0)
(1.03494 -0.00659072 0)
(1.03975 -0.00297179 0)
(1.04361 0.000846092 0)
(1.04559 0.00417357 0)
(1.00006 -0.000819987 0)
(1.00058 0.000900193 0)
(1.00161 -0.00163402 0)
(1.0028 -0.000442416 0)
(1.00483 -0.00239006 0)
(1.00697 -0.00193212 0)
(1.0098 -0.00384579 0)
(1.01276 -0.00350693 0)
(1.0162 -0.00493545 0)
(1.01903 -0.00527695 0)
(1.02139 -0.00724086 0)
(1.02303 -0.00793084 0)
(1.02465 -0.00962996 0)
(1.02596 -0.00964611 0)
(1.02814 -0.0102667 0)
(1.03147 -0.00856628 0)
(1.03686 -0.00543 0)
(1.04212 -0.00175257 0)
(1.046 0.00174592 0)
(1.04772 0.00458497 0)
(0.999974 -0.00103773 0)
(1.0005 0.00141141 0)
(1.00134 -0.00218476 0)
(1.00272 -0.000102594 0)
(1.00451 -0.00309885 0)
(1.00677 -0.00192874 0)
(1.00945 -0.00470729 0)
(1.01257 -0.00379378 0)
(1.01579 -0.00616185 0)
(1.01863 -0.00596502 0)
(1.02086 -0.0084784 0)
(1.02261 -0.00831947 0)
(1.02426 -0.0103975 0)
(1.02589 -0.00968653 0)
(1.02851 -0.010325 0)
(1.03323 -0.00766527 0)
(1.03915 -0.00394068 0)
(1.0445 -0.000403098 0)
(1.04818 0.00260027 0)
(1.04951 0.00480293 0)
(1.00003 -0.000188924 0)
(1.00032 -0.000847146 0)
(1.00125 -0.00164224 0)
(1.00255 -0.00212554 0)
(1.00434 -0.00293991 0)
(1.00652 -0.00368557 0)
(1.00925 -0.00455706 0)
(1.01229 -0.00523356 0)
(1.01547 -0.00627494 0)
(1.01821 -0.00733464 0)
(1.0205 -0.00854418 0)
(1.02225 -0.00931583 0)
(1.02409 -0.0100296 0)
(1.02605 -0.0100375 0)
(1.02938 -0.0089979 0)
(1.03532 -0.00589911 0)
(1.04163 -0.00212897 0)
(1.04677 0.00104319 0)
(1.05005 0.00342136 0)
(1.05088 0.00500991 0)
(1.00015 0.000381728 0)
(1.00024 -0.00265311 0)
(1.00141 -0.00111551 0)
(1.00245 -0.00374029 0)
(1.00442 -0.00254278 0)
(1.00639 -0.00491065 0)
(1.00929 -0.00394953 0)
(1.01208 -0.00610017 0)
(1.01533 -0.0057398 0)
(1.01786 -0.00809364 0)
(1.02033 -0.00799899 0)
(1.02205 -0.00979683 0)
(1.02421 -0.00910809 0)
(1.02662 -0.00975452 0)
(1.03131 -0.00697844 0)
(1.03781 -0.00347606 0)
(1.04416 -7.02322e-05 0)
(1.04887 0.00253048 0)
(1.05163 0.00422318 0)
(1.05196 0.00528215 0)
(1.00018 -0.000321486 0)
(1.0003 -0.00153421 0)
(1.00152 -0.00171005 0)
(1.00248 -0.00280426 0)
(1.00449 -0.00291959 0)
(1.00638 -0.00387992 0)
(1.0093 -0.00403931 0)
(1.01194 -0.00521059 0)
(1.01512 -0.00590134 0)
(1.01757 -0.00741161 0)
(1.02013 -0.00812668 0)
(1.02201 -0.00899982 0)
(1.02452 -0.00871946 0)
(1.02769 -0.0080363 0)
(1.03373 -0.00459583 0)
(1.04039 -0.00102048 0)
(1.04643 0.00181345 0)
(1.05053 0.00375264 0)
(1.05276 0.00479631 0)
(1.05262 0.00540054 0)
(1.00012 -0.000831957 0)
(1.00032 -9.15532e-05 0)
(1.00141 -0.00226434 0)
(1.00249 -0.0015323 0)
(1.00438 -0.00338028 0)
(1.00636 -0.00261447 0)
(1.00909 -0.00439746 0)
(1.01171 -0.00422759 0)
(1.01468 -0.00645343 0)
(1.0172 -0.00672686 0)
(1.01981 -0.0086592 0)
(1.02209 -0.00811912 0)
(1.02507 -0.00840106 0)
(1.02965 -0.00589774 0)
(1.03637 -0.0022487 0)
(1.0428 0.001027 0)
(1.04825 0.00321325 0)
(1.05168 0.0045179 0)
(1.05341 0.00507126 0)
(1.05292 0.00533195 0)
(1.00012 -0.000378258 0)
(1.00021 -0.00058186 0)
(1.00129 -0.00178213 0)
(1.0024 -0.00182203 0)
(1.00429 -0.0029278 0)
(1.00625 -0.0028277 0)
(1.00884 -0.00409117 0)
(1.01133 -0.00450561 0)
(1.01417 -0.00629583 0)
(1.01673 -0.00694358 0)
(1.01959 -0.0083105 0)
(1.02242 -0.00778966 0)
(1.02616 -0.0069796 0)
(1.0321 -0.00378012 0)
(1.03902 -0.000350981 0)
(1.04491 0.00235035 0)
(1.04961 0.00393908 0)
(1.05241 0.004722 0)
(1.05373 0.00500059 0)
(1.05303 0.0050665 0)
(1.00016 -7.40036e-05 0)
(1.00016 -0.00139319 0)
(1.00131 -0.00116894 0)
(1.00232 -0.00228285 0)
(1.00429 -0.00207841 0)
(1.0061 -0.00322586 0)
(1.00864 -0.0033839 0)
(1.0109 -0.00489006 0)
(1.01376 -0.00545994 0)
(1.01632 -0.00686742 0)
(1.01962 -0.00690025 0)
(1.02314 -0.00693204 0)
(1.02808 -0.00468886 0)
(1.03464 -0.00151254 0)
(1.04137 0.00127787 0)
(1.0466 0.00318089 0)
(1.05056 0.00421863 0)
(1.05284 0.00460411 0)
(1.05388 0.00474607 0)
(1.05308 0.00475256 0)
(1.00015 -0.000231723 0)
(1.00023 -0.0012603 0)
(1.00138 -0.00110541 0)
(1.00236 -0.00192252 0)
(1.00428 -0.00159085 0)
(1.00596 -0.0026405 0)
(1.00841 -0.00271503 0)
(1.01055 -0.00409293 0)
(1.01344 -0.00428062 0)
(1.01615 -0.00538106 0)
(1.01988 -0.00488833 0)
(1.02418 -0.00466295 0)
(1.03032 -0.00217341 0)
(1.0369 0.000410864 0)
(1.04309 0.00228162 0)
(1.04767 0.00326367 0)
(1.05106 0.00372327 0)
(1.05301 0.00381469 0)
(1.05392 0.00389059 0)
(1.05315 0.00396164 0)
(1.00013 -0.000323815 0)
(1.0003 -0.000973876 0)
(1.00143 -0.00124512 0)
(1.00249 -0.00146985 0)
(1.00429 -0.00144361 0)
(1.00591 -0.00168836 0)
(1.00822 -0.00193512 0)
(1.01037 -0.0023051 0)
(1.01328 -0.00246408 0)
(1.01624 -0.00252335 0)
(1.02035 -0.00204941 0)
(1.02537 -0.00103671 0)
(1.03207 0.000836826 0)
(1.03837 0.00221884 0)
(1.04391 0.00287513 0)
(1.04795 0.00283095 0)
(1.05106 0.00264503 0)
(1.05296 0.00243042 0)
(1.05399 0.00245019 0)
(1.05339 0.00259919 0)
(1.00014 -0.000234986 0)
(1.00033 -0.00117274 0)
(1.00154 -0.00122892 0)
(1.00264 -0.00148021 0)
(1.00447 -0.00124819 0)
(1.00605 -0.00111517 0)
(1.00836 -0.000749704 0)
(1.01056 -0.000326342 0)
(1.01355 0.000284078 0)
(1.0167 0.00103964 0)
(1.02115 0.00205781 0)
(1.02655 0.00338396 0)
(1.03295 0.00437787 0)
(1.03858 0.00424838 0)
(1.04349 0.00354332 0)
(1.04721 0.00233464 0)
(1.0504 0.00138986 0)
(1.0526 0.000633777 0)
(1.05403 0.000413809 0)
(1.05379 0.000406029 0)
(1.00023 -0.000120059 0)
(1.0003 -0.00143317 0)
(1.00181 -0.00117762 0)
(1.00281 -0.00163191 0)
(1.0049 -0.000960531 0)
(1.00646 -0.000722198 0)
(1.00905 0.000558261 0)
(1.01127 0.00151727 0)
(1.01453 0.00329296 0)
(1.01773 0.00470085 0)
(1.0224 0.00662343 0)
(1.02728 0.00769231 0)
(1.03275 0.00783701 0)
(1.03729 0.00640169 0)
(1.04162 0.00449681 0)
(1.04516 0.0021364 0)
(1.04867 0.000286916 0)
(1.05139 -0.00133311 0)
(1.05349 -0.00219576 0)
(1.05382 -0.0028122 0)
(1.00054 -0.000184877 0)
(1.00008 -0.00105759 0)
(1.00229 -0.00120783 0)
(1.0029 -0.00132749 0)
(1.00565 -0.000770929 0)
(1.00704 1.62378e-05 0)
(1.01034 0.00153311 0)
(1.01251 0.00331993 0)
(1.01636 0.00564927 0)
(1.01938 0.00799744 0)
(1.02398 0.0102277 0)
(1.02749 0.0112512 0)
(1.0317 0.0108313 0)
(1.03468 0.00891488 0)
(1.03837 0.00615367 0)
(1.04151 0.00302688 0)
(1.04539 0.000130107 0)
(1.0485 -0.00247863 0)
(1.05137 -0.00452058 0)
(1.0523 -0.00618655 0)
(1.00093 -0.000511366 0)
(0.999732 -0.000149454 0)
(1.0027 -0.00112859 0)
(1.00295 -0.000501914 0)
(1.0065 -0.00048924 0)
(1.00781 0.00107793 0)
(1.01194 0.00228395 0)
(1.0142 0.00483867 0)
(1.01874 0.00712276 0)
(1.02153 0.0102464 0)
(1.02571 0.0123901 0)
(1.02765 0.0139143 0)
(1.03036 0.0136037 0)
(1.03145 0.0122806 0)
(1.03405 0.00940991 0)
(1.03632 0.00620976 0)
(1.0401 0.00250083 0)
(1.04312 -0.000917699 0)
(1.0464 -0.00438921 0)
(1.04774 -0.00727586 0)
(1.00088 -0.00048793 0)
(0.999778 0.000200529 0)
(1.00262 -0.000542203 0)
(1.00328 0.000114821 0)
(1.00701 0.000312472 0)
(1.00889 0.00178602 0)
(1.01332 0.00311016 0)
(1.01627 0.00548019 0)
(1.02113 0.00781044 0)
(1.02418 0.0107628 0)
(1.0277 0.0131923 0)
(1.02869 0.0152482 0)
(1.02975 0.0160708 0)
(1.02909 0.0159582 0)
(1.02971 0.0145646 0)
(1.03056 0.0123645 0)
(1.03315 0.00916277 0)
(1.03535 0.00556212 0)
(1.03816 0.00145203 0)
(1.03994 -0.00250971 0)
(1.00049 -0.000247215 0)
(1.00014 0.00017268 0)
(1.00235 2.92028e-05 0)
(1.00379 0.000573209 0)
(1.00728 0.00110829 0)
(1.01001 0.00220269 0)
(1.01444 0.00355658 0)
(1.01827 0.00540244 0)
(1.02325 0.00745769 0)
(1.02696 0.00974674 0)
(1.03027 0.0121595 0)
(1.03107 0.0145602 0)
(1.03101 0.0165011 0)
(1.02938 0.0177593 0)
(1.02836 0.0182335 0)
(1.02739 0.0177518 0)
(1.02759 0.0162182 0)
(1.02777 0.0138559 0)
(1.02855 0.0108767 0)
(1.02917 0.00770795 0)
(1.00013 -0.000106826 0)
(1.00048 0.000242435 0)
(1.00219 0.000264246 0)
(1.00433 0.000920934 0)
(1.0075 0.00140491 0)
(1.01094 0.00233497 0)
(1.01532 0.00332598 0)
(1.01984 0.00478403 0)
(1.02482 0.00619437 0)
(1.02924 0.0077869 0)
(1.03287 0.00937076 0)
(1.03429 0.0114426 0)
(1.03395 0.0137771 0)
(1.03195 0.0160955 0)
(1.02968 0.0180013 0)
(1.0272 0.0193578 0)
(1.02536 0.0198272 0)
(1.02384 0.0195691 0)
(1.02335 0.0187351 0)
(1.02387 0.0178332 0)
(0.999578 0.000204006 0)
(1.00104 0.000133987 0)
(1.00186 0.000609816 0)
(1.00505 0.000818855 0)
(1.00746 0.00143583 0)
(1.01187 0.00181261 0)
(1.01577 0.00268598 0)
(1.02116 0.0034972 0)
(1.02562 0.0045851 0)
(1.03068 0.00538944 0)
(1.0343 0.00628066 0)
(1.03737 0.00726645 0)
(1.03779 0.00897763 0)
(1.03675 0.0111781 0)
(1.03436 0.014108 0)
(1.03161 0.017118 0)
(1.02842 0.0199195 0)
(1.02603 0.0219388 0)
(1.02474 0.0237713 0)
(1.02526 0.0252946 0)
(0.998484 0.000160935 0)
(1.00208 0.00032017 0)
(1.00099 0.000580641 0)
(1.00602 0.000810283 0)
(1.00679 0.00101775 0)
(1.01288 0.00131543 0)
(1.01555 0.00168772 0)
(1.02243 0.00222136 0)
(1.02569 0.00266375 0)
(1.03184 0.00324979 0)
(1.03444 0.0037399 0)
(1.03893 0.00458503 0)
(1.03975 0.00563594 0)
(1.04194 0.00759162 0)
(1.04104 0.0101154 0)
(1.04029 0.0131274 0)
(1.03637 0.0162567 0)
(1.03441 0.0195641 0)
(1.03272 0.0228577 0)
(1.03371 0.026128 0)
(0.998227 0.000304638 0)
(1.00222 -2.15931e-05 0)
(1.00077 0.000508463 0)
(1.00606 0.000226374 0)
(1.00662 0.000647926 0)
(1.01299 0.000530155 0)
(1.01556 0.00101304 0)
(1.0226 0.000889553 0)
(1.02589 0.00114683 0)
(1.03246 0.00125635 0)
(1.03553 0.00205901 0)
(1.04093 0.00313543 0)
(1.04253 0.00481722 0)
(1.0457 0.00686522 0)
(1.04517 0.00919225 0)
(1.04587 0.01187 0)
(1.04408 0.0150291 0)
(1.04465 0.0188712 0)
(1.04424 0.0225395 0)
(1.04567 0.0260313 0)
(0.999007 0.00144366 0)
(1.00149 -0.00154106 0)
(1.00149 0.00128842 0)
(1.0054 -0.00133068 0)
(1.00734 0.00115172 0)
(1.01258 -0.000973056 0)
(1.01617 0.00126609 0)
(1.022 -0.000750651 0)
(1.02643 0.000977246 0)
(1.03278 -0.000550755 0)
(1.03774 0.00170068 0)
(1.04349 0.00155195 0)
(1.04705 0.00474886 0)
(1.05076 0.00605181 0)
(1.05239 0.0101437 0)
(1.05433 0.0127644 0)
(1.05468 0.0176592 0)
(1.05538 0.0209378 0)
(1.05464 0.0252322 0)
(1.05386 0.0271704 0)
(0.999735 0.00111981 0)
(1.00094 -0.00124202 0)
(1.00218 0.000966004 0)
(1.005 -0.00110582 0)
(1.00801 0.000837215 0)
(1.01239 -0.000903271 0)
(1.01667 0.000814925 0)
(1.02168 -0.000785168 0)
(1.02693 0.000641847 0)
(1.03329 -0.000656003 0)
(1.03984 0.000948077 0)
(1.04652 0.000369434 0)
(1.0524 0.00245656 0)
(1.05775 0.00276744 0)
(1.06206 0.00541027 0)
(1.06577 0.00651266 0)
(1.06801 0.00950563 0)
(1.06844 0.0108892 0)
(1.06608 0.0134147 0)
(1.06064 0.0139731 0)
(1.01722 0.000448521 0)
(0.991303 0.00093085 0)
(0.964911 0.00135523 0)
(0.93847 0.00170472 0)
(0.912132 0.0019676 0)
(0.885802 0.00215261 0)
(0.859249 0.00226382 0)
(0.832318 0.00232744 0)
(0.80489 0.00235731 0)
(0.777058 0.0023728 0)
(0.748815 0.00238384 0)
(0.720279 0.00240957 0)
(0.691375 0.00244538 0)
(0.662129 0.00249343 0)
(0.632407 0.00252977 0)
(0.60223 0.0025673 0)
(0.571423 0.00258627 0)
(0.5401 0.00258935 0)
(0.508225 0.00261676 0)
(0.475763 0.00263206 0)
(0.442816 0.00263249 0)
(0.409648 0.002558 0)
(0.376893 0.00244788 0)
(0.34501 0.00226943 0)
(0.315223 0.00197912 0)
(0.28854 0.00161305 0)
(0.266294 0.0010778 0)
(0.249377 0.000435333 0)
(0.237212 -0.000118944 0)
(0.228688 -0.000497087 0)
(0.222617 -0.000685081 0)
(0.2181 -0.000699423 0)
(0.214619 -0.000603531 0)
(0.211789 -0.000478429 0)
(0.209297 -0.000369948 0)
(0.206897 -0.000289758 0)
(0.204607 -0.000240929 0)
(0.202166 -0.000169863 0)
(0.199805 -7.7314e-05 0)
(0.19727 -2.48858e-06 0)
(0.19458 6.87573e-05 0)
(0.191766 8.66986e-05 0)
(0.188742 6.84128e-05 0)
(0.1857 7.16201e-05 0)
(0.182741 6.88652e-05 0)
(0.179785 7.61294e-05 0)
(0.177055 8.18646e-05 0)
(0.174274 7.166e-05 0)
(0.17156 7.74022e-05 0)
(0.168828 7.07157e-05 0)
(0.166122 5.43479e-05 0)
(0.163537 5.48666e-05 0)
(0.161096 5.50833e-05 0)
(0.15865 5.33368e-05 0)
(0.156415 4.03517e-05 0)
(0.154124 3.36957e-05 0)
(0.151952 5.02889e-05 0)
(0.14984 4.17637e-05 0)
(0.147848 2.15484e-05 0)
(0.145835 3.29524e-05 0)
(0.143974 3.75341e-05 0)
(0.142141 2.5312e-05 0)
(0.140491 2.38934e-05 0)
(0.138722 2.49092e-05 0)
(0.137083 2.61392e-05 0)
(0.13547 2.3379e-05 0)
(0.134095 9.70431e-06 0)
(0.132632 1.33011e-05 0)
(0.131273 2.56578e-05 0)
(0.129878 1.42885e-05 0)
(0.128801 4.97118e-06 0)
(0.127571 1.3985e-05 0)
(0.126494 1.48238e-05 0)
(0.125353 8.75649e-06 0)
(0.124496 8.02449e-06 0)
(0.123473 8.0643e-06 0)
(0.122739 7.80357e-06 0)
(0.121808 7.8299e-06 0)
(0.121181 6.23056e-06 0)
(0.120356 5.45834e-06 0)
(0.119894 5.16421e-06 0)
(0.119143 4.72437e-06 0)
(0.118773 4.5706e-06 0)
(0.118084 3.67179e-06 0)
(0.117853 3.16e-06 0)
(0.117239 2.98018e-06 0)
(0.117094 2.98564e-06 0)
(0.116529 1.86758e-06 0)
(0.116483 2.13516e-06 0)
(0.115977 1.48568e-06 0)
(0.115986 1.4852e-06 0)
(0.115571 4.09886e-07 0)
(0.1156 1.00301e-06 0)
(0.115325 -1.00037e-06 0)
(0.115313 -2.72211e-07 0)
(0.115319 -4.33645e-06 0)
(0.115202 -4.11329e-06 0)
(0.115765 -9.10187e-06 0)
(0.115464 -2.90462e-05 0)
(0.117781 -4.10521e-05 0)
(1.03023 0.00130639 0)
(1.02794 0.00232819 0)
(1.02502 0.00324557 0)
(1.02194 0.00400998 0)
(1.01875 0.00459458 0)
(1.01549 0.00499669 0)
(1.01173 0.00524092 0)
(1.00755 0.00537112 0)
(1.0026 0.00543506 0)
(0.997106 0.00546812 0)
(0.990935 0.00550306 0)
(0.984128 0.00557012 0)
(0.97673 0.00566544 0)
(0.968442 0.00578255 0)
(0.959523 0.00590514 0)
(0.949397 0.00602532 0)
(0.938492 0.00613792 0)
(0.926169 0.00621968 0)
(0.912925 0.00630277 0)
(0.898291 0.00638961 0)
(0.882465 0.00646661 0)
(0.865585 0.00648659 0)
(0.847508 0.00642303 0)
(0.828986 0.00627469 0)
(0.809785 0.0059701 0)
(0.791112 0.00554268 0)
(0.773113 0.00494906 0)
(0.756452 0.00418636 0)
(0.741562 0.0034033 0)
(0.727688 0.00269571 0)
(0.715007 0.00211954 0)
(0.703035 0.00167847 0)
(0.691538 0.00138004 0)
(0.680505 0.0011973 0)
(0.669881 0.00108751 0)
(0.659084 0.00100367 0)
(0.649074 0.000924397 0)
(0.638562 0.000828723 0)
(0.628572 0.000744879 0)
(0.618985 0.00072507 0)
(0.608697 0.000716315 0)
(0.599251 0.00074934 0)
(0.589517 0.000758755 0)
(0.579439 0.000712186 0)
(0.570495 0.000669709 0)
(0.560792 0.000608046 0)
(0.551857 0.000600134 0)
(0.543188 0.000583247 0)
(0.534263 0.000543811 0)
(0.525941 0.000552678 0)
(0.517559 0.000517831 0)
(0.509337 0.000476354 0)
(0.501828 0.000439453 0)
(0.493851 0.000405502 0)
(0.48692 0.000415711 0)
(0.479728 0.000379831 0)
(0.472488 0.000340317 0)
(0.46619 0.000341967 0)
(0.459962 0.000314432 0)
(0.453148 0.000293131 0)
(0.447461 0.000273749 0)
(0.441718 0.000249284 0)
(0.436279 0.000256564 0)
(0.43067 0.000236187 0)
(0.425367 0.000202916 0)
(0.420364 0.000206857 0)
(0.416073 0.000189478 0)
(0.410887 0.000165605 0)
(0.406468 0.000165618 0)
(0.402361 0.000147291 0)
(0.398614 0.000132214 0)
(0.39424 0.000131792 0)
(0.390837 0.000114433 0)
(0.387159 0.000103032 0)
(0.384189 0.000101116 0)
(0.380669 8.62377e-05 0)
(0.378098 7.72681e-05 0)
(0.374977 7.56658e-05 0)
(0.372819 6.65444e-05 0)
(0.369944 5.74428e-05 0)
(0.368223 5.31732e-05 0)
(0.36563 4.84665e-05 0)
(0.364247 4.46824e-05 0)
(0.361892 3.74291e-05 0)
(0.360891 3.34415e-05 0)
(0.358774 3.0009e-05 0)
(0.358068 2.81868e-05 0)
(0.35618 2.19417e-05 0)
(0.355712 2.10886e-05 0)
(0.354089 1.73195e-05 0)
(0.353757 1.53457e-05 0)
(0.352478 1.15983e-05 0)
(0.352121 1.02699e-05 0)
(0.351359 6.65601e-06 0)
(0.350756 2.06295e-06 0)
(0.350822 -2.09435e-07 0)
(0.349707 -1.53678e-05 0)
(0.351114 -1.16993e-05 0)
(0.349319 -6.02137e-05 0)
(0.353078 -0.000125899 0)
(1.02976 0.00206236 0)
(1.02801 0.00313636 0)
(1.0261 0.00417516 0)
(1.02457 0.00511151 0)
(1.02346 0.00585415 0)
(1.02282 0.00635401 0)
(1.02229 0.00663446 0)
(1.02186 0.00673025 0)
(1.02132 0.00674004 0)
(1.0207 0.00669156 0)
(1.02008 0.00667836 0)
(1.01928 0.00670646 0)
(1.01859 0.00681153 0)
(1.01753 0.00695315 0)
(1.01651 0.0071215 0)
(1.01489 0.00731855 0)
(1.01314 0.0074989 0)
(1.01066 0.00767638 0)
(1.00781 0.00781581 0)
(1.00435 0.00801791 0)
(1.00033 0.00816926 0)
(0.995887 0.00827014 0)
(0.990774 0.00827288 0)
(0.985334 0.00813982 0)
(0.979382 0.00787576 0)
(0.973192 0.00739708 0)
(0.96697 0.00678836 0)
(0.960555 0.00598503 0)
(0.954484 0.00512999 0)
(0.948221 0.00438715 0)
(0.942122 0.0037534 0)
(0.935972 0.00326371 0)
(0.929796 0.00292885 0)
(0.923569 0.00267532 0)
(0.917449 0.00252906 0)
(0.910988 0.00243145 0)
(0.904848 0.00231972 0)
(0.898262 0.00228151 0)
(0.891815 0.00213635 0)
(0.885249 0.00206271 0)
(0.878448 0.00208153 0)
(0.871383 0.00198659 0)
(0.864556 0.0020014 0)
(0.856874 0.00197005 0)
(0.849723 0.00186441 0)
(0.842247 0.0018259 0)
(0.834506 0.00172868 0)
(0.827207 0.00167416 0)
(0.819518 0.00164128 0)
(0.811582 0.0015703 0)
(0.80423 0.00152199 0)
(0.795865 0.00145149 0)
(0.788571 0.00140019 0)
(0.780528 0.00133073 0)
(0.772803 0.00123296 0)
(0.765351 0.00121911 0)
(0.757321 0.00117747 0)
(0.749652 0.00107004 0)
(0.742759 0.00104309 0)
(0.734371 0.0010289 0)
(0.727367 0.000933333 0)
(0.720085 0.000859825 0)
(0.712884 0.000856735 0)
(0.705641 0.000834915 0)
(0.698708 0.000770984 0)
(0.691394 0.00070046 0)
(0.685489 0.000660939 0)
(0.678258 0.000667662 0)
(0.671825 0.000628315 0)
(0.665513 0.000529158 0)
(0.659912 0.000512664 0)
(0.653292 0.000527353 0)
(0.648021 0.000462655 0)
(0.642009 0.000406091 0)
(0.637265 0.000399212 0)
(0.63156 0.000368284 0)
(0.627182 0.000331059 0)
(0.62189 0.000306864 0)
(0.618151 0.000281225 0)
(0.613191 0.000251839 0)
(0.609954 0.00023007 0)
(0.605421 0.000209033 0)
(0.602674 0.000192121 0)
(0.598544 0.000168183 0)
(0.596279 0.00015044 0)
(0.592575 0.000135456 0)
(0.590713 0.000122307 0)
(0.587481 0.000106175 0)
(0.585886 9.36572e-05 0)
(0.583198 8.52211e-05 0)
(0.58176 6.91534e-05 0)
(0.579704 6.61568e-05 0)
(0.578223 4.78482e-05 0)
(0.576972 5.0415e-05 0)
(0.575245 2.38687e-05 0)
(0.575026 3.15234e-05 0)
(0.572888 -6.43084e-06 0)
(0.573969 -6.43313e-06 0)
(0.571581 -5.48932e-05 0)
(0.574307 -0.000196194 0)
(1.02976 0.00254398 0)
(1.02803 0.00348715 0)
(1.02614 0.00451274 0)
(1.02459 0.00552328 0)
(1.02353 0.00637189 0)
(1.02292 0.00693404 0)
(1.02259 0.00722169 0)
(1.02235 0.0072542 0)
(1.02222 0.00717593 0)
(1.02206 0.00701996 0)
(1.02211 0.00692339 0)
(1.0221 0.0068838 0)
(1.02238 0.00696723 0)
(1.02251 0.00710905 0)
(1.02287 0.00729136 0)
(1.02297 0.00753181 0)
(1.02314 0.00775389 0)
(1.02298 0.00798001 0)
(1.02277 0.00815444 0)
(1.02231 0.00841004 0)
(1.0218 0.00857645 0)
(1.02114 0.00869445 0)
(1.02044 0.00870295 0)
(1.01957 0.00856666 0)
(1.0187 0.00829467 0)
(1.01758 0.00776689 0)
(1.01652 0.00712281 0)
(1.01504 0.00627416 0)
(1.01357 0.00537296 0)
(1.01162 0.00461243 0)
(1.00963 0.00397806 0)
(1.00731 0.00351628 0)
(1.005 0.0032251 0)
(1.00244 0.00298585 0)
(1.00007 0.00286026 0)
(0.997371 0.00277118 0)
(0.995019 0.00267542 0)
(0.99227 0.00269563 0)
(0.989861 0.00258806 0)
(0.987055 0.00253882 0)
(0.984458 0.00259268 0)
(0.981411 0.00251107 0)
(0.978607 0.00253987 0)
(0.975192 0.00255046 0)
(0.972022 0.00244119 0)
(0.968491 0.00242437 0)
(0.964924 0.0023498 0)
(0.961205 0.0022626 0)
(0.957629 0.00227984 0)
(0.953389 0.0022239 0)
(0.949852 0.0021585 0)
(0.945278 0.00209449 0)
(0.9414 0.00202404 0)
(0.936865 0.00200095 0)
(0.932474 0.00189261 0)
(0.927928 0.0018484 0)
(0.92341 0.00184803 0)
(0.918401 0.00168398 0)
(0.914312 0.00165502 0)
(0.908783 0.00170656 0)
(0.904247 0.00155196 0)
(0.899201 0.00144302 0)
(0.894352 0.00146468 0)
(0.889015 0.00143172 0)
(0.884314 0.00136981 0)
(0.878607 0.00126752 0)
(0.87424 0.00118837 0)
(0.868544 0.00122558 0)
(0.863618 0.00118316 0)
(0.858255 0.00102153 0)
(0.853744 0.000996467 0)
(0.847947 0.00102297 0)
(0.843537 0.00093169 0)
(0.837999 0.000843103 0)
(0.833752 0.000822133 0)
(0.828326 0.000777101 0)
(0.824193 0.000721058 0)
(0.818909 0.000673327 0)
(0.815168 0.000626733 0)
(0.810042 0.00057865 0)
(0.80654 0.000535723 0)
(0.801708 0.000496276 0)
(0.7985 0.000459143 0)
(0.793973 0.000417119 0)
(0.791049 0.000377205 0)
(0.786896 0.000348812 0)
(0.784237 0.000313278 0)
(0.780542 0.000286426 0)
(0.778045 0.000251342 0)
(0.774875 0.000236227 0)
(0.772517 0.000196237 0)
(0.769937 0.000190609 0)
(0.767605 0.000148912 0)
(0.765724 0.000150154 0)
(0.763335 0.000102244 0)
(0.762267 0.000104716 0)
(0.759809 5.52552e-05 0)
(0.759639 2.95612e-05 0)
(0.757397 -7.09852e-06 0)
(0.758228 -0.000220777 0)
(1.02994 0.00249662 0)
(1.02824 0.00326719 0)
(1.02642 0.00424926 0)
(1.02483 0.00530525 0)
(1.02376 0.0062665 0)
(1.02303 0.0069194 0)
(1.02267 0.00726085 0)
(1.02235 0.00728101 0)
(1.02223 0.00716841 0)
(1.02206 0.00696242 0)
(1.02215 0.00681751 0)
(1.0222 0.00674526 0)
(1.02254 0.00681394 0)
(1.02279 0.0069703 0)
(1.02327 0.00716533 0)
(1.02356 0.00744092 0)
(1.02398 0.00769468 0)
(1.02412 0.00795247 0)
(1.02436 0.00815506 0)
(1.02435 0.00840725 0)
(1.02452 0.00856743 0)
(1.02452 0.00866376 0)
(1.02474 0.00865897 0)
(1.02479 0.00850422 0)
(1.02505 0.00819965 0)
(1.02509 0.0076446 0)
(1.02531 0.00696012 0)
(1.02512 0.00609814 0)
(1.025 0.00518932 0)
(1.02433 0.00442243 0)
(1.02375 0.00381857 0)