/*--------------------------------*- C++ -*----------------------------------*\
  =========                 |
  \\      /  F ield         | OpenFOAM: The Open Source CFD Toolbox
   \\    /   O peration     | Website:  https://openfoam.org
    \\  /    A nd           | Version:  6
     \\/     M anipulation  |
\*---------------------------------------------------------------------------*/
FoamFile
{
    version     2.0;
    format      ascii;
    class       volScalarField;
    location    "0.5";
    object      p;
}
// * * * * * * * * * * * * * * * * * * * * * * * * * * * * * * * * * * * * * //

dimensions      [0 2 -2 0 0 0 0];

internalField   nonuniform List<scalar> 
4800
(
-2.19897e-11
-4.50844e-05
3.68373e-05
0.000141724
0.000256709
0.000306731
0.000386143
0.000395987
0.000232385
-0.000264296
-0.00108426
-0.00196292
-0.00292138
-0.00408082
-0.00539283
-0.00676911
-0.00803217
-0.00903666
-0.00957617
-0.00950607
1.13157e-06
-4.40478e-05
3.54137e-05
0.000142691
0.000256602
0.000308396
0.00038501
0.000393599
0.000232895
-0.000260196
-0.00108005
-0.00196443
-0.00292464
-0.00408498
-0.00539079
-0.00676767
-0.00803582
-0.00903632
-0.00959727
-0.00956085
-1.78884e-08
-3.87571e-05
2.99614e-05
0.00014629
0.000254596
0.000315257
0.00037999
0.000384951
0.000235148
-0.000242739
-0.00106292
-0.00196674
-0.00293937
-0.00410104
-0.00539129
-0.00676414
-0.00803047
-0.00903317
-0.00963834
-0.00970505
-4.73563e-06
-2.87887e-05
2.1324e-05
0.00014973
0.000252817
0.000327859
0.000372524
0.000368715
0.000238747
-0.000211876
-0.0010279
-0.00196668
-0.00296567
-0.00412916
-0.00539954
-0.00675591
-0.00801622
-0.00904157
-0.00969974
-0.00990003
-1.01745e-05
-1.89021e-05
1.52241e-05
0.000147632
0.000252947
0.000343117
0.000367966
0.000346549
0.000240644
-0.000173663
-0.000976443
-0.00195698
-0.00298853
-0.00416195
-0.00541459
-0.00674658
-0.00801581
-0.0090816
-0.0098075
-0.0100833
-1.0934e-05
-1.42759e-05
1.58966e-05
0.0001384
0.00025111
0.000359659
0.00036964
0.000326422
0.000239647
-0.000137154
-0.000920727
-0.00192741
-0.00299113
-0.00418384
-0.00542805
-0.00675375
-0.0080582
-0.00915622
-0.00991684
-0.0102081
-7.26122e-06
-1.40164e-05
2.24122e-05
0.000127591
0.000242168
0.000375537
0.000376844
0.000320786
0.000235716
-0.000111802
-0.000869248
-0.00187535
-0.00296082
-0.00417485
-0.00543648
-0.00679513
-0.00815454
-0.00927324
-0.010018
-0.0102543
-1.00567e-05
-1.23411e-05
3.14715e-05
0.000121803
0.000226743
0.000384808
0.000389581
0.000334565
0.000234646
-9.52786e-05
-0.000823927
-0.00181098
-0.00289099
-0.0041301
-0.00544556
-0.0068747
-0.00828639
-0.00942461
-0.0101167
-0.0102712
-2.26902e-05
-8.50636e-06
4.12574e-05
0.000120583
0.00021574
0.000379413
0.000404919
0.000361724
0.000248191
-7.77495e-05
-0.000784478
-0.00173924
-0.00279144
-0.00406405
-0.00545938
-0.00696629
-0.00843896
-0.00959226
-0.0102212
-0.010353
-3.1492e-05
-7.95518e-06
5.22513e-05
0.000118064
0.000219659
0.000354947
0.000417172
0.000392792
0.00027994
-4.64375e-05
-0.000736511
-0.0016562
-0.00269209
-0.00399809
-0.0054724
-0.00705156
-0.00858578
-0.00976134
-0.0103384
-0.0103392
-3.02469e-05
-1.05117e-05
5.93061e-05
0.000111287
0.000237819
0.000323127
0.000421581
0.000415695
0.000323924
1.19854e-05
-0.000662946
-0.00156489
-0.00261127
-0.00394144
-0.00547231
-0.00711596
-0.00869455
-0.00991372
-0.0104943
-0.0102377
-2.67511e-05
-1.04381e-05
5.21226e-05
0.000108816
0.000259182
0.000304989
0.000410128
0.000426097
0.000373414
9.67405e-05
-0.000564294
-0.00146013
-0.00252907
-0.00388227
-0.00546077
-0.00714732
-0.00874774
-0.0100261
-0.010713
-0.0104758
-2.62195e-05
-7.7964e-06
3.35785e-05
0.000116439
0.000269455
0.000308513
0.00038922
0.000436216
0.000420064
0.000185621
-0.000449224
-0.00132885
-0.00242272
-0.00380825
-0.00543747
-0.00713482
-0.00875179
-0.0101067
-0.0108513
-0.0110409
-3.01639e-05
-7.18599e-06
1.91682e-05
0.000124616
0.000267738
0.000327574
0.000382876
0.000451359
0.000449587
0.000248639
-0.000328645
-0.00117655
-0.00228562
-0.00369877
-0.00536779
-0.00707627
-0.00873366
-0.0102894
-0.0112437
-0.0119073
-3.92499e-05
-8.17859e-06
1.93436e-05
0.000127934
0.000260607
0.000344196
0.000396917
0.000466071
0.000460376
0.000280035
-0.000218573
-0.00101675
-0.00211076
-0.00353797
-0.00523933
-0.00700867
-0.00875669
-0.0105678
-0.0119967
-0.0130656
-5.03026e-05
-5.60601e-06
3.37526e-05
0.000126195
0.000239468
0.000341979
0.000425021
0.00049093
0.000469833
0.000288927
-0.000142248
-0.000869722
-0.0019151
-0.00334667
-0.00508936
-0.00697624
-0.00893148
-0.0110294
-0.0129486
-0.0143695
-5.7744e-05
2.05698e-06
5.03511e-05
0.000111161
0.000201944
0.000335546
0.000466925
0.000525481
0.000472674
0.000274708
-0.000101331
-0.000749988
-0.00173585
-0.00316515
-0.00495782
-0.00699873
-0.00928066
-0.0116794
-0.0139661
-0.0156217
-5.93119e-05
9.12704e-06
5.21872e-05
8.43039e-05
0.000174809
0.000346235
0.000497878
0.000534304
0.000456213
0.000266304
-5.9364e-05
-0.000664981
-0.00163212
-0.00306817
-0.00490919
-0.0071191
-0.00972935
-0.0124124
-0.0149153
-0.0166543
-5.58665e-05
7.74448e-06
3.42815e-05
6.55294e-05
0.000179224
0.000360358
0.000483304
0.000504155
0.000444936
0.000296441
-2.80203e-05
-0.00067513
-0.00168465
-0.00312917
-0.00499668
-0.00736169
-0.0101836
-0.0130542
-0.0156264
-0.0173379
-4.9929e-05
-6.15034e-06
9.78322e-06
7.01452e-05
0.00020332
0.000350328
0.000425355
0.000455931
0.000441677
0.000312344
-8.81005e-05
-0.000830552
-0.00187897
-0.00330245
-0.00518479
-0.00764847
-0.0105581
-0.013489
-0.0160207
-0.017645
-4.66107e-05
-2.75257e-05
-1.28778e-06
9.22883e-05
0.00021639
0.000302525
0.000343182
0.000393168
0.000400214
0.000239332
-0.000252287
-0.00105504
-0.00211069
-0.00352256
-0.00546539
-0.0079898
-0.0108644
-0.013703
-0.0160897
-0.0175629
-4.82422e-05
-4.29409e-05
8.03626e-06
0.00010699
0.000188477
0.000217759
0.000253151
0.000314769
0.000302401
8.202e-05
-0.000460351
-0.00128589
-0.00238978
-0.00385674
-0.00587169
-0.00837214
-0.0110492
-0.0136295
-0.015772
-0.0170441
-5.0563e-05
-4.41816e-05
2.1818e-05
8.74166e-05
0.000113628
0.000124626
0.000182629
0.000230045
0.000155262
-0.000145747
-0.000736815
-0.00161457
-0.00279548
-0.0043057
-0.00627443
-0.00858805
-0.0109698
-0.0132365
-0.0151132
-0.0161961
-4.95995e-05
-3.79441e-05
1.67415e-05
3.12178e-05
2.90795e-05
6.75693e-05
0.000132632
0.000107873
-7.98905e-05
-0.00049261
-0.00116049
-0.00207839
-0.00322773
-0.00466527
-0.00647083
-0.00853828
-0.0106807
-0.0126869
-0.0142964
-0.0151859
-4.73176e-05
-3.73669e-05
-1.37941e-05
-2.9264e-05
-1.60972e-05
4.05434e-05
3.72922e-05
-0.000123102
-0.0004483
-0.000961459
-0.00165965
-0.00250701
-0.00352698
-0.00486484
-0.00652555
-0.00840598
-0.0103356
-0.0120442
-0.0133132
-0.0139854
-4.87141e-05
-4.81981e-05
-5.09068e-05
-5.79304e-05
-3.01863e-05
-3.14517e-05
-0.00017414
-0.00047382
-0.000882275
-0.00141124
-0.00205252
-0.0028109
-0.00380172
-0.00511122
-0.00663474
-0.00826
-0.00982502
-0.0111293
-0.0120825
-0.0126859
-5.64829e-05
-6.23555e-05
-7.06665e-05
-6.68196e-05
-8.14979e-05
-0.000200534
-0.000469886
-0.000825917
-0.00122606
-0.00172416
-0.00235618
-0.00319413
-0.00427385
-0.00549719
-0.00673792
-0.0079261
-0.00903255
-0.0100282
-0.0109347
-0.0117536
-6.75682e-05
-6.83768e-05
-8.02338e-05
-0.000107141
-0.000202222
-0.000412862
-0.000721227
-0.00105173
-0.0014537
-0.00201565
-0.0027934
-0.00379818
-0.00485937
-0.00582335
-0.00666934
-0.00744501
-0.00827693
-0.00924136
-0.0103399
-0.0114206
-7.75851e-05
-7.15639e-05
-0.000110079
-0.000190516
-0.000338543
-0.000571853
-0.000857255
-0.00120037
-0.00172437
-0.00244912
-0.00337752
-0.00438086
-0.00525214
-0.00593913
-0.0065239
-0.00716892
-0.00800619
-0.00907716
-0.0102825
-0.0113502
-8.90469e-05
-8.877e-05
-0.00016376
-0.00027157
-0.000435581
-0.000662925
-0.000958114
-0.00142224
-0.00210041
-0.00290675
-0.00379579
-0.00462112
-0.00533371
-0.00595209
-0.00657574
-0.00735868
-0.00832266
-0.00941991
-0.010499
-0.0113202
-0.000108296
-0.000122932
-0.000213864
-0.000325529
-0.000509817
-0.000751031
-0.00112413
-0.0017056
-0.00239036
-0.00311001
-0.00383472
-0.00454277
-0.00528592
-0.00607652
-0.00696229
-0.00795549
-0.00899429
-0.00999094
-0.0108476
-0.0114402
-0.000136051
-0.000162334
-0.000250174
-0.000380675
-0.000595648
-0.000870862
-0.00131121
-0.00186526
-0.00242402
-0.00302853
-0.00368247
-0.00445212
-0.00533954
-0.00634419
-0.00741682
-0.00844971
-0.0094091
-0.010272
-0.0110248
-0.0116126
-0.000167734
-0.000202629
-0.00029242
-0.00045773
-0.000680516
-0.000981731
-0.00139592
-0.00182887
-0.00231644
-0.00291834
-0.00363979
-0.00450219
-0.00542943
-0.00639183
-0.00728837
-0.00807566
-0.00882372
-0.00964062
-0.0105874
-0.0115852
-0.000200676
-0.000251145
-0.000352232
-0.000533275
-0.000737526
-0.00103757
-0.00136861
-0.00174825
-0.00226908
-0.00291317
-0.00366116
-0.00445669
-0.00521579
-0.00586817
-0.00637268
-0.00682334
-0.00738393
-0.00823145
-0.00948231
-0.0110884
-0.000237757
-0.000309168
-0.00041599
-0.000584507
-0.000777196
-0.00105088
-0.00133741
-0.00174291
-0.00225523
-0.00283802
-0.0034593
-0.00407362
-0.00464844
-0.00511936
-0.00551301
-0.00589167
-0.00635169
-0.00704385
-0.00811454
-0.00963309
-0.000283085
-0.000366129
-0.000471452
-0.00062695
-0.000820451
-0.00106224
-0.00135059
-0.00172908
-0.00213324
-0.00257294
-0.00304541
-0.00356871
-0.00416264
-0.0048129
-0.00550168
-0.00611806
-0.00655953
-0.00682405
-0.00708975
-0.00772834
-0.000328386
-0.000412095
-0.000525666
-0.000677507
-0.000863151
-0.00108181
-0.00134969
-0.00162514
-0.00193721
-0.0022985
-0.00275255
-0.00333738
-0.00407645
-0.00496141
-0.00591981
-0.00682853
-0.00752718
-0.00786722
-0.00791023
-0.00805682
-0.000371379
-0.000442399
-0.000579249
-0.000717706
-0.000901201
-0.00109658
-0.00131
-0.00151937
-0.00180643
-0.00216669
-0.00267027
-0.00334036
-0.00419341
-0.0052094
-0.00635519
-0.00762021
-0.00899327
-0.0104059
-0.0116482
-0.0123808
-0.000417283
-0.000464484
-0.000611406
-0.000738345
-0.000926709
-0.001116
-0.00128695
-0.00150901
-0.00176193
-0.00207667
-0.00253814
-0.00321397
-0.00420744
-0.00557482
-0.00736778
-0.00954194
-0.0119504
-0.0143294
-0.0163307
-0.0173851
-0.00044231
-0.000482576
-0.00061237
-0.000751292
-0.000937462
-0.0011292
-0.00130501
-0.00154288
-0.00175378
-0.0019905
-0.00235679
-0.00300166
-0.00413234
-0.005927
-0.00850469
-0.011797
-0.0154828
-0.0187477
-0.0203932
-0.0198739
-0.00874087
-0.00731148
-0.00625513
-0.00594147
-0.00626647
-0.00700294
-0.00788634
-0.00868763
-0.00932306
-0.00975176
-0.00999707
-0.0102111
-0.0105213
-0.0109613
-0.0114963
-0.0120685
-0.0126532
-0.0132829
-0.0138953
-0.0144967
-0.0151779
-0.0158894
-0.0166114
-0.0174368
-0.0184017
-0.0193232
-0.0200333
-0.0205599
-0.0209647
-0.0210898
-0.0209085
-0.0207713
-0.0206072
-0.0203005
-0.0201534
-0.0201079
-0.0201028
-0.0202465
-0.0203431
-0.0203772
-0.0205138
-0.0207187
-0.0209994
-0.0212749
-0.0213716
-0.0215142
-0.0218964
-0.0222077
-0.0223068
-0.0224642
-0.0227651
-0.0230349
-0.0231999
-0.0233838
-0.0236439
-0.0238699
-0.0240629
-0.0243035
-0.024532
-0.0247315
-0.0249627
-0.0251758
-0.0253645
-0.025598
-0.025828
-0.0260151
-0.0262371
-0.0264932
-0.0267075
-0.0269108
-0.0271555
-0.0274087
-0.0276388
-0.0278734
-0.0281289
-0.0283891
-0.0286475
-0.0289122
-0.029184
-0.0294619
-0.0297422
-0.0300303
-0.0303226
-0.0306214
-0.0309257
-0.0312349
-0.0315515
-0.031873
-0.0322008
-0.0325358
-0.0328736
-0.0332205
-0.0335679
-0.0339221
-0.0342742
-0.0346289
-0.0349685
-0.0353052
-0.0355874
-0.0358412
-0.00888277
-0.00753642
-0.0064487
-0.00608341
-0.00637928
-0.00708891
-0.00794748
-0.00873606
-0.00936268
-0.00978832
-0.0100355
-0.0102446
-0.0105521
-0.0109955
-0.0115266
-0.0120953
-0.0126843
-0.0133112
-0.013919
-0.0145175
-0.0151902
-0.0159026
-0.0166206
-0.0174257
-0.0183789
-0.0192971
-0.0200011
-0.0205191
-0.0209223
-0.0210569
-0.0208831
-0.0207523
-0.0205954
-0.0202921
-0.0201488
-0.0201047
-0.0200988
-0.0202431
-0.02034
-0.0203757
-0.0205138
-0.0207167
-0.0209966
-0.0212742
-0.0213709
-0.0215115
-0.0218939
-0.0222065
-0.0223051
-0.0224616
-0.0227633
-0.0230341
-0.0231987
-0.0233822
-0.0236429
-0.0238692
-0.0240619
-0.0243027
-0.0245315
-0.024731
-0.0249623
-0.0251756
-0.0253641
-0.0255978
-0.0258279
-0.0260149
-0.0262369
-0.0264932
-0.0267075
-0.0269107
-0.0271555
-0.0274088
-0.0276388
-0.0278734
-0.0281289
-0.0283891
-0.0286475
-0.0289122
-0.029184
-0.0294619
-0.0297422
-0.0300303
-0.0303226
-0.0306214
-0.0309257
-0.0312349
-0.0315515
-0.031873
-0.0322008
-0.0325358
-0.0328736
-0.0332205
-0.0335679
-0.0339221
-0.0342742
-0.034629
-0.0349686
-0.0353054
-0.0355878
-0.0358414
-0.00910471
-0.00786261
-0.0067293
-0.00627855
-0.00652538
-0.00719299
-0.00800763
-0.00877271
-0.00938791
-0.00980988
-0.0100647
-0.0102778
-0.0105876
-0.0110365
-0.0115651
-0.0121306
-0.0127251
-0.0133484
-0.0139482
-0.0145441
-0.0152074
-0.0159117
-0.016623
-0.017407
-0.0183331
-0.0192345
-0.0199309
-0.0204407
-0.0208367
-0.0209817
-0.0208303
-0.0207115
-0.0205641
-0.0202744
-0.0201387
-0.0200985
-0.0200944
-0.0202373
-0.0203338
-0.0203725
-0.0205149
-0.0207174
-0.0209932
-0.021271
-0.0213707
-0.0215111
-0.0218904
-0.022202
-0.0223027
-0.0224596
-0.0227594
-0.0230304
-0.0231965
-0.0233796
-0.0236399
-0.0238671
-0.0240601
-0.0243005
-0.0245293
-0.024729
-0.0249606
-0.0251741
-0.0253628
-0.0255967
-0.025827
-0.0260141
-0.0262361
-0.0264926
-0.026707
-0.0269103
-0.0271552
-0.0274085
-0.0276386
-0.0278732
-0.0281288
-0.028389
-0.0286474
-0.0289121
-0.0291839
-0.0294619
-0.0297422
-0.0300303
-0.0303226
-0.0306214
-0.0309257
-0.0312349
-0.0315515
-0.0318731
-0.0322008
-0.0325359
-0.0328736
-0.0332206
-0.0335679
-0.0339222
-0.0342742
-0.0346291
-0.0349687
-0.0353056
-0.0355892
-0.0358426
-0.00935063
-0.00820267
-0.00703504
-0.00649758
-0.00668961
-0.00731112
-0.00807252
-0.00880146
-0.00939907
-0.00981058
-0.0100726
-0.0103037
-0.0106228
-0.0110765
-0.011602
-0.0121663
-0.0127652
-0.0133808
-0.0139751
-0.0145734
-0.0152235
-0.0159076
-0.0166126
-0.0173782
-0.0182664
-0.0191394
-0.0198283
-0.0203377
-0.0207165
-0.0208716
-0.0207622
-0.0206539
-0.0205167
-0.020253
-0.0201258
-0.0200907
-0.0200908
-0.0202307
-0.0203238
-0.0203641
-0.0205172
-0.0207237
-0.020989
-0.021261
-0.0213688
-0.0215153
-0.0218864
-0.0221911
-0.0222991
-0.0224595
-0.0227516
-0.0230218
-0.0231939
-0.0233764
-0.0236335
-0.0238624
-0.024057
-0.0242961
-0.0245244
-0.0247251
-0.0249571
-0.0251707
-0.0253597
-0.0255939
-0.0258246
-0.0260121
-0.0262343
-0.0264907
-0.0267055
-0.0269092
-0.0271542
-0.0274075
-0.0276378
-0.0278727
-0.0281284
-0.0283886
-0.0286471
-0.0289119
-0.0291837
-0.0294617
-0.0297421
-0.0300302
-0.0303225
-0.0306213
-0.0309257
-0.0312349
-0.0315515
-0.0318731
-0.0322008
-0.0325359
-0.0328737
-0.0332206
-0.0335679
-0.0339223
-0.0342744
-0.0346293
-0.0349692
-0.0353059
-0.0355918
-0.0358452
-0.00957011
-0.00850137
-0.00734533
-0.00675978
-0.00689734
-0.00746588
-0.00816616
-0.00883908
-0.00939978
-0.00978679
-0.010054
-0.0103146
-0.0106558
-0.0111167
-0.0116393
-0.0122089
-0.0128081
-0.0134105
-0.0140055
-0.0146097
-0.0152381
-0.0158912
-0.0165894
-0.0173409
-0.0181853
-0.0190208
-0.0197108
-0.0202228
-0.0205726
-0.0207449
-0.0206901
-0.0205889
-0.0204634
-0.0202347
-0.0201171
-0.0200848
-0.0200902
-0.0202254
-0.0203111
-0.0203546
-0.0205238
-0.0207339
-0.0209825
-0.0212474
-0.0213688
-0.0215228
-0.0218801
-0.022176
-0.0222961
-0.0224603
-0.0227401
-0.0230098
-0.0231917
-0.0233722
-0.0236235
-0.0238558
-0.0240536
-0.02429
-0.0245174
-0.0247197
-0.0249518
-0.0251653
-0.0253552
-0.0255897
-0.0258209
-0.0260093
-0.0262315
-0.0264876
-0.026703
-0.0269075
-0.0271524
-0.0274056
-0.0276365
-0.0278718
-0.0281276
-0.0283879
-0.0286465
-0.0289114
-0.0291833
-0.0294613
-0.0297418
-0.0300299
-0.0303223
-0.0306212
-0.0309256
-0.0312349
-0.0315515
-0.0318731
-0.0322008
-0.032536
-0.0328737
-0.0332207
-0.0335681
-0.0339225
-0.0342747
-0.0346296
-0.03497
-0.0353064
-0.0355952
-0.035849
-0.0097338
-0.00873661
-0.00766544
-0.00709336
-0.00717335
-0.00766882
-0.00829519
-0.00889139
-0.00938728
-0.00974078
-0.0100173
-0.0103138
-0.0106905
-0.0111669
-0.011691
-0.0122679
-0.0128591
-0.0134418
-0.0140427
-0.0146486
-0.0152477
-0.0158673
-0.0165541
-0.0172972
-0.0180975
-0.0188925
-0.0195902
-0.0201006
-0.0204176
-0.0206122
-0.020617
-0.0205245
-0.0204098
-0.0202196
-0.0201137
-0.0200824
-0.0200925
-0.020221
-0.0202979
-0.0203465
-0.0205325
-0.0207438
-0.0209744
-0.0212352
-0.0213713
-0.0215292
-0.0218708
-0.0221604
-0.0222938
-0.0224602
-0.022726
-0.0229969
-0.02319
-0.023367
-0.0236116
-0.0238488
-0.02405
-0.0242825
-0.024509
-0.0247134
-0.0249456
-0.0251593
-0.0253502
-0.0255849
-0.0258165
-0.026006
-0.0262281
-0.0264838
-0.0267001
-0.0269055
-0.0271503
-0.0274034
-0.0276348
-0.0278707
-0.0281265
-0.0283868
-0.0286456
-0.0289107
-0.0291826
-0.0294608
-0.0297413
-0.0300296
-0.030322
-0.030621
-0.0309254
-0.0312348
-0.0315514
-0.0318731
-0.0322009
-0.032536
-0.0328738
-0.0332209
-0.0335682
-0.0339227
-0.034275
-0.0346299
-0.034971
-0.0353071
-0.0355992
-0.0358535
-0.0098099
-0.00891573
-0.00800518
-0.00750194
-0.00752126
-0.00791857
-0.00845786
-0.00896242
-0.00937132
-0.0096894
-0.00998238
-0.0103125
-0.0107254
-0.0112289
-0.0117616
-0.0123407
-0.0129144
-0.0134755
-0.0140841
-0.0146828
-0.015252
-0.0158423
-0.0165121
-0.0172479
-0.0180106
-0.0187653
-0.0194629
-0.0199723
-0.0202619
-0.0204747
-0.0205422
-0.0204639
-0.0203573
-0.020206
-0.0201132
-0.0200835
-0.0200971
-0.0202158
-0.0202846
-0.0203383
-0.020539
-0.020753
-0.0209683
-0.0212249
-0.0213723
-0.0215317
-0.0218604
-0.0221459
-0.0222911
-0.0224582
-0.0227108
-0.0229836
-0.023188
-0.0233609
-0.0235986
-0.0238411
-0.0240458
-0.0242743
-0.0245
-0.0247068
-0.0249391
-0.0251527
-0.0253448
-0.0255797
-0.0258116
-0.0260021
-0.0262242
-0.0264797
-0.0266969
-0.0269032
-0.0271479
-0.0274009
-0.0276329
-0.0278693
-0.0281252
-0.0283856
-0.0286445
-0.0289098
-0.0291819
-0.0294601
-0.0297407
-0.0300291
-0.0303216
-0.0306207
-0.0309252
-0.0312346
-0.0315514
-0.0318731
-0.0322009
-0.0325361
-0.0328739
-0.033221
-0.0335684
-0.0339229
-0.0342755
-0.0346303
-0.0349722
-0.0353082
-0.0356035
-0.0358584
-0.0098012
-0.00906541
-0.0083681
-0.00796473
-0.0079282
-0.00821354
-0.00865213
-0.00905417
-0.00936535
-0.00964679
-0.00995767
-0.0103121
-0.0107514
-0.0112889
-0.0118432
-0.0124199
-0.0129733
-0.0135187
-0.0141266
-0.0147102
-0.0152513
-0.0158145
-0.0164642
-0.0171907
-0.0179264
-0.0186369
-0.0193209
-0.0198408
-0.0201118
-0.0203346
-0.0204642
-0.0204033
-0.0203051
-0.0201921
-0.0201106
-0.0200848
-0.0201028
-0.0202086
-0.0202696
-0.0203279
-0.0205434
-0.020764
-0.0209637
-0.0212114
-0.0213694
-0.0215336
-0.0218511
-0.0221308
-0.0222866
-0.0224557
-0.0226951
-0.0229688
-0.0231852
-0.0233546
-0.0235846
-0.0238327
-0.0240418
-0.0242658
-0.0244902
-0.0246996
-0.0249319
-0.0251456
-0.0253389
-0.025574
-0.0258062
-0.0259979
-0.02622
-0.0264752
-0.0266934
-0.0269007
-0.0271452
-0.0273981
-0.0276308
-0.0278677
-0.0281238
-0.0283842
-0.0286434
-0.0289088
-0.029181
-0.0294594
-0.0297402
-0.0300286
-0.0303213
-0.0306204
-0.0309249
-0.0312345
-0.0315513
-0.0318731
-0.0322009
-0.0325362
-0.032874
-0.0332211
-0.0335687
-0.0339231
-0.0342761
-0.0346307
-0.0349736
-0.0353095
-0.0356079
-0.0358635
-0.00983335
-0.00923259
-0.0087647
-0.00846524
-0.00838402
-0.00855292
-0.00886937
-0.00915562
-0.00936873
-0.00961484
-0.00993633
-0.0103107
-0.0107689
-0.0113378
-0.0119291
-0.0125044
-0.0130438
-0.0135781
-0.0141646
-0.0147256
-0.0152401
-0.0157746
-0.0164072
-0.0171315
-0.0178446
-0.0185037
-0.0191699
-0.019707
-0.0199675
-0.0201965
-0.0203769
-0.020334
-0.0202509
-0.0201761
-0.0201027
-0.0200823
-0.0201087
-0.0202
-0.0202512
-0.020316
-0.0205475
-0.020774
-0.0209549
-0.0211924
-0.0213656
-0.0215386
-0.0218418
-0.0221115
-0.0222799
-0.0224541
-0.0226783
-0.0229514
-0.0231825
-0.0233491
-0.0235696
-0.0238234
-0.0240375
-0.0242564
-0.0244791
-0.0246916
-0.0249245
-0.0251381
-0.0253326
-0.0255678
-0.0258004
-0.0259933
-0.0262155
-0.0264703
-0.0266895
-0.0268979
-0.0271423
-0.0273952
-0.0276285
-0.0278661
-0.0281223
-0.0283828
-0.0286422
-0.0289079
-0.0291802
-0.0294586
-0.0297395
-0.0300281
-0.0303208
-0.03062
-0.0309247
-0.0312343
-0.0315512
-0.031873
-0.0322009
-0.0325362
-0.0328742
-0.0332213
-0.033569
-0.0339234
-0.0342767
-0.0346312
-0.0349751
-0.035311
-0.0356123
-0.0358688
-0.00987277
-0.00947629
-0.00922249
-0.00900597
-0.00888095
-0.00892233
-0.00908711
-0.00924154
-0.00937124
-0.00959039
-0.00991462
-0.0103148
-0.0107933
-0.0113854
-0.0120142
-0.0125948
-0.0131301
-0.01365
-0.0141961
-0.0147258
-0.0152185
-0.0157255
-0.0163488
-0.0170835
-0.0177642
-0.0183676
-0.0190188
-0.0195649
-0.019825
-0.020064
-0.0202792
-0.0202547
-0.020194
-0.0201586
-0.0200918
-0.0200756
-0.0201139
-0.0201907
-0.0202305
-0.0203043
-0.0205497
-0.0207781
-0.0209417
-0.0211728
-0.0213646
-0.0215458
-0.0218294
-0.0220873
-0.0222727
-0.0224542
-0.0226608
-0.0229328
-0.0231801
-0.0233437
-0.0235532
-0.0238128
-0.0240327
-0.0242464
-0.0244675
-0.0246837
-0.024917
-0.0251301
-0.0253255
-0.0255612
-0.0257943
-0.0259886
-0.0262108
-0.0264652
-0.0266856
-0.0268951
-0.0271393
-0.0273921
-0.0276262
-0.0278645
-0.0281207
-0.0283813
-0.0286409
-0.0289068
-0.0291792
-0.0294577
-0.0297388
-0.0300275
-0.0303203
-0.0306196
-0.0309244
-0.0312341
-0.0315511
-0.031873
-0.032201
-0.0325363
-0.0328744
-0.0332214
-0.0335694
-0.0339237
-0.0342775
-0.0346318
-0.0349768
-0.0353129
-0.0356166
-0.0358745
-0.00997094
-0.00985137
-0.00976485
-0.00958516
-0.00938812
-0.00927719
-0.00926372
-0.00928407
-0.00936177
-0.00956911
-0.00989646
-0.0103297
-0.0108372
-0.0114435
-0.0120896
-0.0126826
-0.0132244
-0.0137259
-0.0142273
-0.0147186
-0.0151899
-0.0156778
-0.0162984
-0.0170372
-0.0176782
-0.018235
-0.0188689
-0.0194135
-0.0196847
-0.0199388
-0.0201782
-0.0201693
-0.0201314
-0.0201374
-0.0200793
-0.0200661
-0.0201168
-0.0201796
-0.02021
-0.0202933
-0.0205474
-0.0207775
-0.0209292
-0.0211562
-0.0213646
-0.0215498
-0.0218137
-0.0220633
-0.0222663
-0.0224547
-0.0226444
-0.0229142
-0.0231769
-0.0233377
-0.0235362
-0.0238017
-0.0240279
-0.0242365
-0.0244557
-0.0246753
-0.0249088
-0.0251213
-0.0253182
-0.0255545
-0.0257881
-0.0259835
-0.0262057
-0.0264597
-0.0266813
-0.0268919
-0.027136
-0.0273887
-0.0276236
-0.0278625
-0.0281188
-0.0283794
-0.0286394
-0.0289054
-0.0291781
-0.0294568
-0.029738
-0.0300269
-0.0303198
-0.0306192
-0.0309241
-0.0312339
-0.031551
-0.0318729
-0.032201
-0.0325363
-0.0328746
-0.0332216
-0.0335698
-0.0339239
-0.0342784
-0.0346324
-0.0349787
-0.0353149
-0.0356208
-0.0358804
-0.0103581
-0.0104131
-0.0103949
-0.0101716
-0.00984509
-0.00954946
-0.00935132
-0.00926673
-0.00932999
-0.00954515
-0.00988193
-0.0103513
-0.0108983
-0.0115139
-0.0121564
-0.0127593
-0.0133173
-0.0138016
-0.0142635
-0.0147142
-0.015148
-0.0156313
-0.0162521
-0.0169686
-0.0175869
-0.0181199
-0.0187204
-0.0192552
-0.0195455
-0.0198162
-0.0200745
-0.0200766
-0.0200582
-0.0201074
-0.0200644
-0.0200559
-0.020116
-0.0201634
-0.0201886
-0.0202827
-0.0205419
-0.0207749
-0.0209173
-0.0211384
-0.0213602
-0.0215496
-0.0217999
-0.0220446
-0.02226
-0.0224532
-0.0226293
-0.0228961
-0.0231711
-0.0233301
-0.0235193
-0.0237903
-0.0240226
-0.024226
-0.0244432
-0.0246661
-0.0248999
-0.0251122
-0.0253106
-0.0255472
-0.025781
-0.0259776
-0.0261999
-0.0264536
-0.0266765
-0.0268884
-0.0271323
-0.027385
-0.0276207
-0.0278602
-0.0281168
-0.0283776
-0.0286379
-0.0289042
-0.029177
-0.0294559
-0.0297373
-0.0300263
-0.0303193
-0.0306188
-0.0309238
-0.0312336
-0.0315508
-0.0318728
-0.032201
-0.0325363
-0.0328748
-0.0332217
-0.0335703
-0.0339243
-0.0342793
-0.0346332
-0.0349807
-0.0353172
-0.0356249
-0.0358865
-0.0110991
-0.0111926
-0.0110889
-0.0107049
-0.0101807
-0.00967746
-0.00932231
-0.00918931
-0.00926989
-0.00951176
-0.00986769
-0.0103777
-0.010972
-0.0116007
-0.0122347
-0.0128311
-0.0134004
-0.0138691
-0.0142989
-0.0147095
-0.0150904
-0.0155828
-0.0162058
-0.0168814
-0.017502
-0.0180299
-0.0185735
-0.0190831
-0.0194045
-0.0196953
-0.0199623
-0.0199787
-0.0199785
-0.0200655
-0.020047
-0.0200462
-0.0201091
-0.0201395
-0.0201644
-0.0202754
-0.0205373
-0.020769
-0.0209024
-0.021117
-0.0213538
-0.0215526
-0.0217925
-0.0220301
-0.0222511
-0.0224467
-0.0226133
-0.0228781
-0.0231632
-0.0233214
-0.0235029
-0.0237788
-0.0240164
-0.0242149
-0.0244298
-0.0246556
-0.0248897
-0.0251019
-0.0253019
-0.0255387
-0.025773
-0.0259712
-0.0261937
-0.0264472
-0.0266714
-0.0268847
-0.0271284
-0.0273811
-0.0276178
-0.0278581
-0.0281149
-0.0283758
-0.0286364
-0.028903
-0.0291759
-0.0294548
-0.0297364
-0.0300254
-0.0303186
-0.0306182
-0.0309234
-0.0312333
-0.0315507
-0.0318727
-0.0322011
-0.0325364
-0.0328751
-0.0332219
-0.0335709
-0.0339246
-0.0342804
-0.0346341
-0.0349827
-0.0353196
-0.0356291
-0.0358929
-0.0121756
-0.0121563
-0.0117846
-0.0111107
-0.010331
-0.00962802
-0.0091725
-0.00905012
-0.00917117
-0.00945682
-0.00985249
-0.0104122
-0.0110582
-0.011706
-0.0123342
-0.0129024
-0.0134553
-0.0139136
-0.0143231
-0.0146981
-0.0150375
-0.0155377
-0.0161591
-0.0167993
-0.0174217
-0.0179482
-0.0184257
-0.0188937
-0.0192674
-0.0195824
-0.0198351
-0.0198789
-0.0199002
-0.0200086
-0.0200244
-0.0200355
-0.0200933
-0.0201092
-0.0201411
-0.0202741
-0.0205337
-0.020759
-0.0208869
-0.0210968
-0.0213508
-0.0215604
-0.0217853
-0.0220126
-0.0222386
-0.0224362
-0.0225967
-0.0228618
-0.0231553
-0.0233116
-0.0234856
-0.0237657
-0.0240082
-0.0242016
-0.024414
-0.0246434
-0.0248789
-0.0250915
-0.0252929
-0.02553
-0.025765
-0.0259649
-0.0261876
-0.0264408
-0.0266665
-0.026881
-0.0271245
-0.0273771
-0.0276148
-0.0278558
-0.0281126
-0.0283736
-0.0286345
-0.0289012
-0.0291743
-0.0294534
-0.0297353
-0.0300245
-0.030318
-0.0306177
-0.0309231
-0.0312331
-0.0315507
-0.0318726
-0.0322012
-0.0325364
-0.0328753
-0.0332221
-0.0335715
-0.0339251
-0.0342815
-0.0346352
-0.0349849
-0.0353224
-0.0356333
-0.0358994
-0.0134615
-0.0131886
-0.012391
-0.0113284
-0.0102652
-0.00940532
-0.00891223
-0.00883948
-0.00902409
-0.00938082
-0.00985102
-0.0104676
-0.0111605
-0.0118218
-0.0124416
-0.0129698
-0.0134796
-0.0139391
-0.0143375
-0.0146845
-0.0150093
-0.0154981
-0.0161061
-0.016728
-0.0173365
-0.017856
-0.0182807
-0.0187058
-0.0191401
-0.0194755
-0.0196899
-0.019773
-0.0198279
-0.01994
-0.0199892
-0.0200188
-0.0200701
-0.0200789
-0.020125
-0.0202777
-0.0205291
-0.0207489
-0.0208751
-0.0210769
-0.0213449
-0.0215647
-0.0217733
-0.0219935
-0.0222271
-0.0224256
-0.0225803
-0.0228446
-0.0231434
-0.0232983
-0.0234662
-0.02375
-0.0239978
-0.0241879
-0.024399
-0.0246323
-0.0248689
-0.0250813
-0.0252838
-0.0255212
-0.025757
-0.0259586
-0.0261812
-0.0264339
-0.0266609
-0.0268766
-0.0271199
-0.0273725
-0.0276111
-0.0278529
-0.0281098
-0.0283709
-0.0286323
-0.0288995
-0.0291729
-0.0294523
-0.0297344
-0.0300239
-0.0303175
-0.0306172
-0.0309227
-0.0312327
-0.0315504
-0.0318725
-0.0322013
-0.0325365
-0.0328757
-0.0332223
-0.0335721
-0.0339256
-0.0342827
-0.0346365
-0.0349871
-0.0353253
-0.0356376
-0.035906
-0.0147723
-0.0141435
-0.0128375
-0.0113501
-0.0100154
-0.0090535
-0.00857005
-0.00856509
-0.00884688
-0.00931514
-0.00989049
-0.010558
-0.0112753
-0.0119353
-0.0125406
-0.0130345
-0.013501
-0.0139623
-0.0143437
-0.0146674
-0.0149948
-0.0154631
-0.0160464
-0.0166607
-0.0172571
-0.0177554
-0.0181438
-0.0185385
-0.0190092
-0.0193616
-0.0195385
-0.0196561
-0.0197568
-0.0198657
-0.0199368
-0.0199945
-0.0200493
-0.0200557
-0.0201159
-0.0202818
-0.0205203
-0.0207369
-0.0208633
-0.0210523
-0.0213324
-0.0215665
-0.0217639
-0.0219783
-0.0222137
-0.0224092
-0.0225605
-0.0228225
-0.0231249
-0.0232852
-0.0234514
-0.0237353
-0.0239871
-0.0241765
-0.0243861
-0.0246205
-0.0248574
-0.0250704
-0.0252744
-0.0255121
-0.0257482
-0.0259511
-0.0261735
-0.0264256
-0.0266542
-0.0268715
-0.0271147
-0.0273673
-0.0276072
-0.0278499
-0.0281071
-0.0283686
-0.0286305
-0.0288981
-0.0291717
-0.0294512
-0.0297334
-0.0300228
-0.0303165
-0.0306163
-0.0309221
-0.0312323
-0.0315503
-0.0318724
-0.0322014
-0.0325365
-0.032876
-0.0332226
-0.0335728
-0.0339263
-0.0342839
-0.0346379
-0.0349895
-0.0353285
-0.0356419
-0.0359127
-0.0159397
-0.0149248
-0.0131098
-0.0112223
-0.00965498
-0.00862722
-0.00817921
-0.00825822
-0.00867864
-0.00929063
-0.00997657
-0.0106792
-0.0113952
-0.0120493
-0.0126354
-0.0131063
-0.0135433
-0.0139845
-0.0143347
-0.0146383
-0.0149771
-0.0154412
-0.0159947
-0.0165981
-0.0171903
-0.0176484
-0.0180074
-0.0183837
-0.0188583
-0.0192382
-0.0194014
-0.0195327
-0.0196732
-0.0197833
-0.0198763
-0.0199726
-0.0200356
-0.0200325
-0.0201009
-0.020283
-0.0205088
-0.0207188
-0.0208518
-0.0210326
-0.0213197
-0.0215655
-0.0217532
-0.0219583
-0.022188
-0.0223844
-0.0225457
-0.022805
-0.0231045
-0.0232764
-0.0234446
-0.0237197
-0.0239716
-0.0241649
-0.0243736
-0.0246067
-0.0248441
-0.0250589
-0.025264
-0.0255007
-0.0257372
-0.0259419
-0.0261647
-0.0264168
-0.0266475
-0.0268666
-0.0271097
-0.0273625
-0.0276036
-0.0278472
-0.0281047
-0.0283662
-0.0286284
-0.0288961
-0.0291697
-0.0294493
-0.0297318
-0.0300215
-0.0303157
-0.0306157
-0.0309218
-0.0312321
-0.0315502
-0.0318722
-0.0322015
-0.0325366
-0.0328764
-0.0332229
-0.0335735
-0.033927
-0.0342853
-0.0346396
-0.0349919
-0.0353319
-0.0356463
-0.0359194
-0.0168297
-0.0154658
-0.0132183
-0.0109966
-0.00924379
-0.00816896
-0.00777805
-0.00797339
-0.0085632
-0.00932318
-0.0101041
-0.0108347
-0.0115415
-0.0121872
-0.0127388
-0.0131806
-0.0135883
-0.0139885
-0.0143063
-0.0145996
-0.0149583
-0.0154327
-0.0159584
-0.0165411
-0.0171171
-0.0175303
-0.0178692
-0.0182319
-0.0187024
-0.0191199
-0.0192803
-0.019406
-0.019569
-0.0196884
-0.0198235
-0.0199595
-0.0200156
-0.0199981
-0.0200772
-0.0202876
-0.0205068
-0.0206983
-0.0208405
-0.0210199
-0.0212987
-0.0215454
-0.0217316
-0.0219359
-0.0221604
-0.0223643
-0.0225472
-0.0227974
-0.023077
-0.0232616
-0.0234404
-0.0237029
-0.0239509
-0.0241524
-0.0243622
-0.0245905
-0.0248271
-0.0250449
-0.0252517
-0.0254878
-0.0257257
-0.0259334
-0.0261567
-0.0264089
-0.0266415
-0.0268621
-0.0271048
-0.0273574
-0.0275996
-0.0278439
-0.0281013
-0.0283628
-0.0286254
-0.0288935
-0.0291676
-0.0294476
-0.0297307
-0.0300208
-0.0303151
-0.0306151
-0.0309213
-0.0312315
-0.0315499
-0.031872
-0.0322015
-0.0325367
-0.0328768