/*--------------------------------*- C++ -*----------------------------------*\
  =========                 |
  \\      /  F ield         | OpenFOAM: The Open Source CFD Toolbox
   \\    /   O peration     | Website:  https://openfoam.org
    \\  /    A nd           | Version:  6
     \\/     M anipulation  |
\*---------------------------------------------------------------------------*/
FoamFile
{
    version     2.0;
    format      ascii;
    class       surfaceScalarField;
    location    "0.5";
    object      phi;
}
// * * * * * * * * * * * * * * * * * * * * * * * * * * * * * * * * * * * * * //

dimensions      [0 3 -1 0 0 0 0];

internalField   nonuniform List<scalar> 
9440
(
3.88243e-06
-8.71851e-10
3.87356e-06
-3.79742e-09
3.88099e-06
-1.93899e-08
3.87522e-06
3.15302e-08
3.88244e-06
-1.3828e-09
3.8724e-06
7.71248e-09
3.88004e-06
-2.3818e-08
3.87064e-06
3.1586e-09
3.87824e-06
-2.66451e-08
3.86991e-06
-1.45604e-09
3.8814e-06
-1.93831e-08
3.87911e-06
-9.5084e-10
3.89793e-06
9.00966e-09
3.90477e-06
2.03042e-08
3.93928e-06
2.10399e-08
3.9728e-06
1.3715e-08
4.00708e-06
5.41505e-09
4.00578e-06
-2.55461e-08
4.00352e-06
-6.63013e-08
2.35809e-08
3.88148e-06
4.1841e-06
8.87425e-10
4.18472e-06
-4.41942e-09
4.18356e-06
-1.8223e-08
4.18692e-06
2.81645e-08
4.1862e-06
-6.59166e-10
4.18448e-06
9.42622e-09
4.18395e-06
-2.32839e-08
4.18392e-06
3.19273e-09
4.1834e-06
-2.61258e-08
4.18379e-06
-1.84652e-09
4.18645e-06
-2.20481e-08
4.19133e-06
-5.83059e-09
4.19883e-06
1.51103e-09
4.20851e-06
1.06255e-08
4.21911e-06
1.04392e-08
4.23398e-06
-1.15143e-09
4.26377e-06
-2.43778e-08
4.29813e-06
-5.99106e-08
4.31419e-06
-8.23548e-08
1.58593e-07
4.17918e-06
4.51846e-06
2.48485e-09
4.51824e-06
-4.19734e-09
4.51733e-06
-1.73084e-08
4.51939e-06
2.60993e-08
4.51946e-06
-7.27149e-10
4.51698e-06
1.19072e-08
4.51735e-06
-2.36524e-08
4.51648e-06
4.0661e-09
4.51765e-06
-2.73053e-08
4.51637e-06
-5.5785e-10
4.52062e-06
-2.63037e-08
4.52395e-06
-9.15397e-09
4.53353e-06
-8.06963e-09
4.54315e-06
9.99705e-10
4.55817e-06
-4.57635e-09
4.57901e-06
-2.19912e-08
4.61467e-06
-6.0038e-08
4.64126e-06
-8.64998e-08
4.52708e-06
3.18228e-08
1.83354e-07
4.50232e-06
4.88091e-06
2.52441e-09
4.87963e-06
-2.92118e-09
4.87861e-06
-1.62818e-08
4.88075e-06
2.39545e-08
4.87968e-06
3.43539e-10
4.87898e-06
1.26069e-08
4.8776e-06
-2.22718e-08
4.878e-06
3.66407e-09
4.87842e-06
-2.77264e-08
4.87857e-06
-7.06666e-10
4.88165e-06
-2.93838e-08
4.88633e-06
-1.38354e-08
4.89589e-06
-1.76294e-08
4.90836e-06
-1.14695e-08
4.92708e-06
-2.32926e-08
4.95421e-06
-4.91231e-08
4.98577e-06
-9.15951e-08
4.95937e-06
-6.01041e-08
4.84337e-06
1.47824e-07
1.82261e-07
4.84446e-06
5.27098e-06
2.18848e-09
5.27004e-06
-1.97746e-09
5.26785e-06
-1.40901e-08
5.27149e-06
2.0311e-08
5.26822e-06
3.61614e-09
5.27052e-06
1.03081e-08
5.26618e-06
-1.79306e-08
5.26876e-06
1.08027e-09
5.26727e-06
-2.62371e-08
5.2701e-06
-3.53508e-09
5.27155e-06
-3.08353e-08
5.27846e-06
-2.07496e-08
5.2884e-06
-2.75681e-08
5.30492e-06
-2.79825e-08
5.32746e-06
-4.58319e-08
5.35387e-06
-7.55395e-08
5.35559e-06
-9.33173e-08
5.21675e-06
7.87394e-08
5.21452e-06
1.50051e-07
1.79838e-07
5.21695e-06
5.69181e-06
1.83996e-09
5.69111e-06
-1.28433e-09
5.68842e-06
-1.14002e-08
5.69259e-06
1.61505e-08
5.68836e-06
7.84204e-09
5.69256e-06
6.10321e-09
5.68607e-06
-1.1441e-08
5.69008e-06
-2.92969e-09
5.68741e-06
-2.35656e-08
5.69215e-06
-8.26942e-09
5.69304e-06
-3.17236e-08
5.70163e-06
-2.9348e-08
5.71309e-06
-3.90255e-08
5.73318e-06
-4.80696e-08
5.75696e-06
-6.96122e-08
5.76941e-06
-8.79882e-08
5.67041e-06
5.684e-09
5.61112e-06
1.38029e-07
5.60779e-06
1.53375e-07
1.60296e-07
5.62733e-06
6.14631e-06
1.40298e-09
6.1453e-06
-2.74509e-10
6.14333e-06
-9.43724e-09
6.14632e-06
1.31615e-08
6.1429e-06
1.12662e-08
6.14754e-06
1.46752e-09
6.14016e-06
-4.07083e-09
6.14466e-06
-7.42496e-09
6.14169e-06
-2.06003e-08
6.14752e-06
-1.40948e-08
6.14856e-06
-3.27664e-08
6.15847e-06
-3.92548e-08
6.17157e-06
-5.21286e-08
6.19303e-06
-6.95299e-08
6.20983e-06
-8.64091e-08
6.16922e-06
-4.73812e-08
6.07896e-06
9.59434e-08
6.049e-06
1.67997e-07
6.02925e-06
1.7312e-07
9.74773e-08
6.09207e-06
6.637e-06
9.6409e-10
6.63585e-06
8.76242e-10
6.63462e-06
-8.20398e-09
6.63621e-06
1.1567e-08
6.63379e-06
1.36873e-08
6.63863e-06
-3.37373e-09
6.63066e-06
3.89675e-09
6.63592e-06
-1.26833e-08
6.63213e-06
-1.68039e-08
6.63961e-06
-2.15755e-08
6.64001e-06
-3.31689e-08
6.65194e-06
-5.11882e-08
6.66442e-06
-6.46026e-08
6.68324e-06
-8.83589e-08
6.67491e-06
-7.80731e-08
6.5989e-06
2.8631e-08
6.54484e-06
1.49995e-07
6.52448e-06
1.88363e-07
6.4919e-06
2.05698e-07
-1.37807e-07
6.72719e-06
7.16665e-06
7.423e-10
7.16608e-06
1.44594e-09
7.16466e-06
-6.77673e-09
7.16566e-06
1.05629e-08
7.16369e-06
1.56596e-08
7.1685e-06
-8.1917e-09
7.16071e-06
1.1689e-08
7.16646e-06
-1.84322e-08
7.16192e-06
-1.22611e-08
7.17096e-06
-3.06159e-08
7.17029e-06
-3.25002e-08
7.18373e-06
-6.46297e-08
7.19204e-06
-7.29143e-08
7.20013e-06
-9.64427e-08
7.15451e-06
-3.24565e-08
7.09122e-06
9.19253e-08
7.05633e-06
1.84886e-07
7.03581e-06
2.08882e-07
7.0197e-06
2.21803e-07
-3.17299e-07
7.19919e-06
7.73868e-06
6.62403e-10
7.73849e-06
1.63564e-09
7.73716e-06
-5.44372e-09
7.73712e-06
1.0601e-08
7.737e-06
1.57871e-08
7.73891e-06
-1.01073e-08
7.73509e-06
1.551e-08
7.73765e-06
-2.09905e-08
7.73614e-06
-1.07564e-08
7.74257e-06
-3.70433e-08
7.74392e-06
-3.38443e-08
7.75343e-06
-7.41485e-08
7.75596e-06
-7.54438e-08
7.73937e-06
-7.98487e-08
7.68181e-06
2.50997e-08
7.63832e-06
1.35421e-07
7.61729e-06
2.05912e-07
7.60095e-06
2.25224e-07
7.66778e-06
1.54977e-07
-4.30102e-07
7.78058e-06
8.35666e-06
4.6105e-10
8.35598e-06
2.31832e-09
8.35588e-06
-5.34545e-09
8.35378e-06
1.27065e-08
8.35749e-06
1.20725e-08
8.3532e-06
-5.81772e-09
8.35721e-06
1.15018e-08
8.35256e-06
-1.63449e-08
8.35822e-06
-1.64123e-08
8.35713e-06
-3.59567e-08
8.36377e-06
-4.04784e-08
8.36214e-06
-7.25184e-08
8.35781e-06
-7.11138e-08
8.31565e-06
-3.76907e-08
8.26712e-06
7.36247e-08
8.23682e-06
1.65721e-07
8.2333e-06
2.09431e-07
8.23608e-06
2.22448e-07
8.59102e-06
-1.99968e-07
-3.7018e-07
8.5311e-06
9.02404e-06
6.98746e-11
9.02271e-06
3.64679e-09
9.0236e-06
-6.23308e-09
9.02047e-06
1.5829e-08
9.02682e-06
5.72972e-09
9.01782e-06
3.1793e-09
9.02753e-06
1.79144e-09
9.01782e-06
-6.63252e-09
9.02824e-06
-2.68342e-08
9.02104e-06
-2.87535e-08
9.02912e-06
-4.85599e-08
9.01545e-06
-5.88528e-08
8.99927e-06
-5.49278e-08
8.94503e-06
1.65454e-08
8.91031e-06
1.08341e-07
8.89087e-06
1.85164e-07
8.8984e-06
2.01903e-07
8.99754e-06
1.23307e-07
9.21271e-06
-4.15142e-07
-3.96942e-07
9.23948e-06
9.7446e-06
-4.26079e-10
9.74311e-06
5.13945e-09
9.74361e-06
-6.7361e-09
9.7421e-06
1.73392e-08
9.74728e-06
5.45057e-10
9.73893e-06
1.15316e-08
9.74739e-06
-6.67222e-09
9.7396e-06
1.1659e-09
9.74713e-06
-3.43689e-08
9.74004e-06
-2.16658e-08
9.74037e-06
-4.88871e-08
9.71999e-06
-3.84679e-08
9.68746e-06
-2.24045e-08
9.63762e-06
6.63879e-08
9.61099e-06
1.34968e-07
9.60691e-06
1.89242e-07
9.62752e-06
1.81295e-07
9.90557e-06
-1.54744e-07
9.89216e-06
-4.01726e-07
-4.33045e-07
9.92826e-06
1.05225e-05
-8.81477e-10
1.05214e-05
6.24731e-09
1.05207e-05
-6.05831e-09
1.05221e-05
1.59998e-08
1.05236e-05
-9.85521e-10
1.05195e-05
1.56269e-08
1.05223e-05
-9.43766e-09
1.05206e-05
2.87932e-09
1.05203e-05
-3.40714e-08
1.05161e-05
-1.74825e-08
1.05037e-05
-3.64892e-08
1.04792e-05
-1.40037e-08
1.04347e-05
2.21629e-08
1.0396e-05
1.05064e-07
1.03733e-05
1.57637e-07
1.03787e-05
1.83902e-07
1.04534e-05
1.0655e-07
1.06472e-05
-3.4855e-07
1.06103e-05
-3.64856e-07
-4.40845e-07
1.06181e-05
1.13624e-05
-1.06409e-09
1.13621e-05
6.46787e-09
1.13603e-05
-4.2257e-09
1.13636e-05
1.27197e-08
1.13618e-05
7.86274e-10
1.1362e-05
1.54094e-08
1.136e-05
-7.3726e-09
1.13623e-05
5.33696e-10
1.13548e-05
-2.65747e-08
1.135e-05
-1.26526e-08
1.13274e-05
-1.38647e-08
1.12975e-05
1.58356e-08
1.12509e-05
6.87517e-08
1.12212e-05
1.3477e-07
1.12046e-05
1.74284e-07
1.12143e-05
1.74137e-07
1.13559e-05
-3.4991e-08
1.13817e-05
-3.74328e-07
1.13978e-05
-3.81e-07
-4.55164e-07
1.14121e-05
1.2269e-05
-7.00691e-10
1.227e-05
5.39891e-09
1.22674e-05
-1.58229e-09
1.22711e-05
8.97469e-09
1.22678e-05
4.12492e-09
1.22706e-05
1.26213e-08
1.22663e-05
-3.12904e-09
1.22679e-05
-1.01767e-09
1.22561e-05
-1.47464e-08
1.22459e-05
-2.49031e-09
1.22181e-05
1.38982e-08
1.21834e-05
5.06035e-08
1.21424e-05
1.09767e-07
1.21176e-05
1.5951e-07
1.21079e-05
1.84051e-07
1.21388e-05
1.43213e-07
1.22748e-05
-1.70996e-07
1.22553e-05
-3.54816e-07
1.2271e-05
-3.96691e-07
-4.90368e-07
1.23062e-05
1.32479e-05
3.44839e-10
1.32505e-05
2.83237e-09
1.32474e-05
1.468e-09
1.32504e-05
5.99e-09
1.3247e-05
7.52811e-09
1.32505e-05
9.13e-09
1.32456e-05
1.79488e-09
1.32432e-05
1.3498e-09
1.3229e-05
-5.57962e-10
1.32118e-05
1.46898e-08
1.31824e-05
4.33126e-08
1.31457e-05
8.72817e-08
1.31125e-05
1.43019e-07
1.30915e-05
1.80527e-07
1.30897e-05
1.85813e-07
1.31604e-05
7.25513e-08
1.32282e-05
-2.38844e-07
1.32265e-05
-3.53079e-07
1.324e-05
-4.10261e-07
-5.33543e-07
1.32832e-05
1.43052e-05
1.87649e-09
1.43091e-05
-1.03293e-09
1.43056e-05
4.91786e-09
1.43074e-05
4.21634e-09
1.43047e-05
1.02128e-08
1.43079e-05
5.97498e-09
1.43022e-05
7.49924e-09
1.42955e-05
8.00892e-09
1.42786e-05
1.63034e-08
1.4256e-05
3.73756e-08
1.4226e-05
7.33115e-08
1.41916e-05
1.21634e-07
1.41657e-05
1.68952e-07
1.41512e-05
1.94947e-07
1.41669e-05
1.70154e-07
1.4254e-05
-1.4522e-08
1.42703e-05
-2.55139e-07
1.42793e-05
-3.62114e-07
1.42983e-05
-4.29239e-07
-5.82598e-07
1.43473e-05
1.54475e-05
3.33127e-09
1.54516e-05
-5.12534e-09
1.54478e-05
8.77531e-09
1.54491e-05
2.93804e-09
1.54473e-05
1.19976e-08
1.54491e-05
4.16349e-09
1.54414e-05
1.51431e-08
1.54314e-05
1.80543e-08
1.5411e-05
3.66941e-08
1.53865e-05
6.18755e-08
1.53568e-05
1.02967e-07
1.5329e-05
1.49504e-07
1.53104e-05
1.87576e-07
1.53074e-05
1.97937e-07
1.53478e-05
1.29735e-07
1.54079e-05
-7.46347e-08
1.5406e-05
-2.53269e-07
1.54132e-05
-3.69277e-07
1.54378e-05
-4.53838e-07
-6.41698e-07
1.54969e-05
1.66817e-05
4.0658e-09
1.66843e-05
-7.68308e-09
1.66811e-05
1.20069e-08
1.66825e-05
1.52798e-09
1.66811e-05
1.33925e-08
1.668e-05
5.27726e-09
1.66702e-05
2.49035e-08
1.66577e-05
3.05415e-08
1.66356e-05
5.88222e-08
1.66124e-05
8.5092e-08
1.6585e-05
1.3031e-07
1.65653e-05
1.69267e-07
1.65552e-05
1.97582e-07
1.6568e-05
1.8521e-07
1.6618e-05
7.96857e-08
1.66412e-05
-9.78488e-08
1.66329e-05
-2.44942e-07
1.66378e-05
-3.74204e-07
1.66687e-05
-4.84738e-07
-7.12297e-07
1.67393e-05
1.80146e-05
3.89278e-09
1.80145e-05
-7.62624e-09
1.80134e-05
1.31466e-08
1.80143e-05
5.72943e-10
1.80127e-05
1.50646e-08
1.80078e-05
1.01691e-08
1.79975e-05
3.5157e-08
1.79833e-05
4.47261e-08
1.79623e-05
7.98088e-08
1.79408e-05
1.06637e-07
1.7918e-05
1.53093e-07
1.79059e-05
1.81338e-07
1.7907e-05
1.96513e-07
1.79357e-05
1.56512e-07
1.79735e-05
4.1942e-08
1.79751e-05
-9.9538e-08
1.79631e-05
-2.32943e-07
1.79692e-05
-3.80231e-07
1.80067e-05
-5.22275e-07
-7.91861e-07
1.80863e-05
1.94533e-05
3.26944e-09
1.94512e-05
-5.55963e-09
1.94525e-05
1.18558e-08
1.9452e-05
1.09742e-09
1.94499e-05
1.71466e-08
1.9442e-05
1.81037e-08
1.94324e-05
4.47593e-08
1.94169e-05
6.02433e-08
1.93985e-05
9.81555e-08
1.93785e-05
1.26692e-07
1.93629e-05
1.68689e-07
1.93597e-05
1.845e-07
1.93742e-05
1.82004e-07
1.94094e-05
1.21311e-07
1.94285e-05
2.28624e-08
1.94203e-05
-9.13536e-08
1.94078e-05
-2.20433e-07
1.94184e-05
-3.90792e-07
1.94617e-05
-5.65557e-07
-8.76582e-07
1.95464e-05
2.10063e-05
2.81914e-09
2.10038e-05
-3.06927e-09
2.10065e-05
9.14568e-09
2.10041e-05
3.43998e-09
2.10015e-05
1.97751e-08
2.09918e-05
2.77844e-08
2.09829e-05
5.37256e-08
2.0967e-05
7.60974e-08
2.09519e-05
1.13289e-07
2.09358e-05
1.42794e-07
2.09302e-05
1.74234e-07
2.0937e-05
1.77721e-07
2.09614e-05
1.57594e-07
2.0989e-05
9.37461e-08
2.09931e-05
1.87705e-08
2.09801e-05
-7.83526e-08
2.09725e-05
-2.12841e-07
2.09919e-05
-4.1019e-07
2.10395e-05
-6.13192e-07
-9.64769e-07
2.11277e-05
2.2683e-05
2.77991e-09
2.26812e-05
-1.30283e-09
2.26839e-05
6.4527e-09
2.26798e-05
7.53195e-09
2.26762e-05
2.34206e-08
2.26664e-05
3.75769e-08
2.26582e-05
6.18546e-08
2.26443e-05
9.00451e-08
2.26338e-05
1.2373e-07
2.26253e-05
1.51371e-07
2.26294e-05
1.70117e-07
2.26427e-05
1.6441e-07
2.26662e-05
1.34056e-07
2.2679e-05
8.09428e-08
2.26757e-05
2.21554e-08
2.26654e-05
-6.80543e-08
2.267e-05
-2.1751e-07
2.26995e-05
-4.397e-07
2.27484e-05
-6.62078e-07
-1.05326e-06
2.28369e-05
2.44938e-05
2.92266e-09
2.44928e-05
-3.03986e-10
2.4494e-05
5.20819e-09
2.44885e-05
1.31057e-08
2.44842e-05
2.76923e-08
2.44764e-05
4.53796e-08
2.447e-05
6.82763e-08
2.44606e-05
9.9456e-08
2.44566e-05
1.27732e-07
2.44559e-05
1.52047e-07
2.44648e-05
1.61249e-07
2.44783e-05
1.50851e-07
2.44931e-05
1.19314e-07
2.44957e-05
7.83003e-08
2.44945e-05
2.33847e-08
2.4496e-05
-6.95528e-08
2.45156e-05
-2.37143e-07
2.45491e-05
-4.73167e-07
2.45928e-05
-7.05851e-07
-1.1358e-06
2.46754e-05
2.64496e-05
2.92469e-09
2.64484e-05
8.38516e-10
2.64472e-05
6.38529e-09
2.64416e-05
1.87502e-08
2.64383e-05
3.10221e-08
2.64339e-05
4.97573e-08
2.643e-05
7.21789e-08
2.64266e-05
1.02841e-07
2.64284e-05
1.25887e-07
2.64325e-05
1.48003e-07
2.64425e-05
1.51254e-07
2.64534e-05
1.39957e-07
2.64604e-05
1.12272e-07
2.64615e-05
7.72645e-08
2.64667e-05
1.81234e-08
2.64819e-05
-8.47506e-08
2.65108e-05
-2.65978e-07
2.65421e-05
-5.04535e-07
2.65783e-05
-7.42017e-07
-1.21265e-06
2.66551e-05
2.85612e-05
3.02586e-09
2.85592e-05
2.8182e-09
2.85562e-05
9.41222e-09
2.85528e-05
2.2185e-08
2.85513e-05
3.24859e-08
2.85498e-05
5.12775e-08
2.85481e-05
7.38399e-08
2.85505e-05
1.00516e-07
2.85561e-05
1.20203e-07
2.85647e-05
1.39418e-07
2.85773e-05
1.38644e-07
2.85866e-05
1.30734e-07
2.85899e-05
1.08897e-07
2.8591e-05
7.61755e-08
2.85998e-05
9.38008e-09
2.86229e-05
-1.07918e-07
2.86539e-05
-2.96933e-07
2.86831e-05
-5.33703e-07
2.87157e-05
-7.74617e-07
-1.29335e-06
2.87964e-05
3.08408e-05
3.93466e-09
3.08389e-05
4.64917e-09
3.08355e-05
1.28245e-08
3.0835e-05
2.27459e-08
3.0834e-05
3.34286e-08
3.08334e-05
5.18679e-08
3.08341e-05
7.32035e-08
3.0842e-05
9.25359e-08
3.08526e-05
1.09602e-07
3.087e-05
1.22091e-07
3.08862e-05
1.22437e-07
3.08949e-05
1.2206e-07
3.08958e-05
1.07949e-07
3.08958e-05
7.62314e-08
3.09053e-05
-1.75261e-10
3.09295e-05
-1.32132e-07
3.09583e-05
-3.25728e-07
3.09863e-05
-5.61693e-07
3.10187e-05
-8.07011e-07
-1.38155e-06
3.11069e-05
3.33025e-05
5.53833e-09
3.33022e-05
4.98002e-09
3.32983e-05
1.66725e-08
3.32992e-05
2.18916e-08
3.32967e-05
3.58902e-08
3.32973e-05
5.12869e-08
3.33025e-05
6.79894e-08
3.33171e-05
7.79335e-08
3.33354e-05
9.13408e-08
3.33613e-05
9.61661e-08
3.33787e-05
1.05013e-07
3.339e-05
1.10766e-07
3.33918e-05
1.06165e-07
3.33946e-05
7.34331e-08
3.34028e-05
-8.41314e-09
3.34198e-05
-1.49137e-07
3.34392e-05
-3.45105e-07
3.3461e-05
-5.83435e-07
3.34906e-05
-8.36636e-07
-1.47473e-06
3.35838e-05
3.59618e-05
6.83671e-09
3.59621e-05
4.72473e-09
3.59571e-05
2.16907e-08
3.59584e-05
2.0572e-08
3.59545e-05
3.97371e-08
3.596e-05
4.58035e-08
3.59709e-05
5.70978e-08
3.5991e-05
5.78019e-08
3.60147e-05
6.76474e-08
3.60427e-05
6.8237e-08
3.60623e-05
8.53858e-08
3.60828e-05
9.02551e-08
3.60953e-05
9.36787e-08
3.61084e-05
6.03506e-08
3.61129e-05
-1.29338e-08
3.61137e-05
-1.49961e-07
3.61122e-05
-3.43569e-07
3.61202e-05
-5.91498e-07
3.61452e-05
-8.616e-07
-1.57902e-06
3.62495e-05
3.88336e-05
7.70081e-09
3.88328e-05
5.53258e-09
3.8828e-05
2.64874e-08
3.88299e-05
1.86233e-08
3.88274e-05
4.22535e-08
3.88399e-05
3.32892e-08
3.88521e-05
4.4917e-08
3.88734e-05
3.64695e-08
3.88956e-05
4.55137e-08
3.8922e-05
4.18542e-08
3.89502e-05
5.7175e-08
3.89869e-05
5.35661e-08
3.90225e-05
5.80316e-08
3.90536e-05
2.92408e-08
3.90602e-05
-1.94926e-08
3.90437e-05
-1.33511e-07
3.90125e-05
-3.12384e-07
3.89959e-05
-5.7488e-07
3.90105e-05
-8.7616e-07
-1.70136e-06
3.91328e-05
4.19338e-05
8.97026e-09
4.19328e-05
6.5335e-09
4.19303e-05
2.89162e-08
4.19325e-05
1.64774e-08
4.19341e-05
4.05994e-08
4.19485e-05
1.89366e-08
4.19567e-05
3.6735e-08
4.19754e-05
1.77692e-08
4.19933e-05
2.75458e-08
4.20227e-05
1.24959e-08
4.20637e-05
1.61593e-08
4.21188e-05
-1.51586e-09
4.2181e-05
-4.18164e-09
4.22349e-05
-2.46431e-08
4.22578e-05
-4.23991e-08
4.22351e-05
-1.1081e-07
4.21752e-05
-2.52527e-07
4.21192e-05
-5.18836e-07
4.21067e-05
-8.63671e-07
-1.83504e-06
4.22404e-05
4.52818e-05
1.02837e-08
4.52822e-05
6.17698e-09
4.52821e-05
2.89937e-08
4.52836e-05
1.50437e-08
4.52894e-05
3.47105e-08
4.52972e-05
1.11834e-08
4.53041e-05
2.98742e-08
4.53196e-05
2.18843e-09
4.53394e-05
7.75727e-09
4.53748e-05
-2.28355e-08
4.54235e-05
-3.25581e-08
4.54863e-05
-6.42939e-08
4.55584e-05
-7.63351e-08
4.5627e-05
-9.32028e-08
4.56779e-05
-9.33104e-08
4.5682e-05
-1.14921e-07
4.5623e-05
-1.93486e-07
4.5527e-05
-4.22847e-07
4.54713e-05
-8.07982e-07
-1.97366e-06
4.56099e-05
4.88989e-05
9.93971e-09
4.88991e-05
5.98897e-09
4.89012e-05
2.68985e-08
4.89015e-05
1.47809e-08
4.89095e-05
2.66786e-08
4.89097e-05
1.1033e-08
4.89226e-05
1.69237e-08
4.89351e-05
-1.02606e-08
4.89612e-05
-1.83784e-08
4.8993e-05
-5.46294e-08
4.90366e-05
-7.61745e-08
4.90859e-05
-1.13542e-07
4.91467e-05
-1.37193e-07
4.92152e-05
-1.61649e-07
4.92952e-05
-1.73382e-07
4.93659e-05
-1.85583e-07
4.93896e-05
-2.17139e-07
4.93149e-05
-3.48168e-07
4.91994e-05
-6.92522e-07
-2.09366e-06
4.93194e-05
5.28051e-05
7.5591e-09
5.28032e-05
7.86219e-09
5.28089e-05
2.11917e-08
5.28081e-05
1.55751e-08
5.28173e-05
1.74685e-08
5.28171e-05
1.1276e-08
5.28349e-05
-8.94114e-10
5.28426e-05
-1.79474e-08
5.28671e-05
-4.2886e-08
5.2883e-05
-7.05337e-08
5.2912e-05
-1.05155e-07
5.29391e-05
-1.40687e-07
5.29867e-05
-1.84731e-07
5.30537e-05
-2.28696e-07
5.31585e-05
-2.78112e-07
5.32929e-05
-3.19998e-07
5.34391e-05
-3.63327e-07
5.35104e-05
-4.19506e-07
5.34129e-05
-5.95065e-07
-2.07688e-06
5.33962e-05
5.70217e-05
4.33153e-09
5.70197e-05
9.95485e-09
5.70285e-05
1.23855e-08
5.70285e-05
1.55849e-08
5.70391e-05
6.83634e-09
5.70427e-05
7.68683e-09
5.7056e-05
-1.41912e-08
5.70587e-05
-2.07192e-08
5.70701e-05
-5.42491e-08
5.70725e-05
-7.29689e-08
5.70872e-05
-1.19853e-07
5.71036e-05
-1.57019e-07
5.71433e-05
-2.24446e-07
5.72078e-05
-2.93208e-07
5.73193e-05
-3.89648e-07
5.74776e-05
-4.78223e-07
5.76812e-05
-5.66922e-07
5.78942e-05
-6.32519e-07
5.80062e-05
-7.07136e-07
-1.81377e-06
5.77431e-05
6.15749e-05
3.60194e-10
6.15747e-05
1.0108e-08
6.15848e-05
2.2945e-09
6.15872e-05
1.32475e-08
6.1599e-05
-5.01339e-09
6.16035e-05
3.25987e-09
6.16095e-05
-2.02813e-08
6.16106e-05
-2.17525e-08
6.16099e-05
-5.36019e-08
6.16091e-05
-7.21288e-08
6.1612e-05
-1.22815e-07
6.16219e-05
-1.66906e-07
6.16404e-05
-2.42934e-07
6.16705e-05
-3.23322e-07
6.1729e-05
-4.48097e-07
6.18502e-05
-5.99411e-07
6.20675e-05
-7.84216e-07
6.2375e-05
-9.40076e-07
6.2716e-05
-1.04812e-06
-1.65785e-06
6.25601e-05
6.64914e-05
-4.23984e-09
6.64944e-05
7.1435e-09
6.65029e-05
-6.25865e-09
6.65122e-05
4.01289e-09
6.65193e-05
-1.21392e-08
6.65274e-05
-4.89681e-09
6.65284e-05
-2.12296e-08
6.6534e-05
-2.73356e-08
6.65264e-05
-4.59934e-08
6.6524e-05
-6.97629e-08
6.65066e-05
-1.05426e-07
6.64954e-05
-1.5574e-07
6.64748e-05
-2.22266e-07
6.64599e-05
-3.08421e-07
6.64332e-05
-4.21478e-07
6.64198e-05
-5.85927e-07
6.64709e-05
-8.35308e-07
6.66879e-05
-1.15716e-06
6.70835e-05
-1.44365e-06
-2.3854e-06
6.7811e-05
7.1798e-05
-7.10802e-09
7.18072e-05
-2.02503e-09
7.18129e-05
-1.1941e-08
7.18282e-05
-1.12935e-08
7.18309e-05
-1.48964e-08
7.18461e-05
-2.0039e-08
7.18452e-05
-2.03003e-08
7.18528e-05
-3.49727e-08
7.18392e-05
-3.24351e-08
7.1825e-05
-5.55676e-08
7.17827e-05
-6.30999e-08
7.17324e-05
-1.05383e-07
7.16624e-05
-1.52264e-07
7.16087e-05
-2.54787e-07
7.15738e-05
-3.86562e-07
7.15615e-05
-5.73648e-07
7.15223e-05
-7.96032e-07
7.15161e-05
-1.15096e-06
7.18314e-05
-1.75899e-06
-3.77247e-06
7.32185e-05
7.75289e-05
7.7542e-05
7.75469e-05
7.75631e-05
7.75687e-05
7.75844e-05
7.75881e-05
7.75888e-05
7.75724e-05
7.75429e-05
7.749e-05
7.74091e-05
7.72825e-05
7.71126e-05
7.69527e-05
7.69639e-05
7.73e-05
7.78324e-05
7.80749e-05
7.67826e-05
3.78713e-06
9.43492e-08
3.70137e-06
8.57605e-08
3.60892e-06
9.24476e-08
3.51443e-06
9.44898e-08
3.41801e-06
9.64202e-08
3.31881e-06
9.92056e-08
3.21715e-06
1.01655e-07
3.11346e-06
1.03693e-07
3.00755e-06
1.05915e-07
2.90025e-06
1.07296e-07
2.79171e-06
1.08535e-07
2.68191e-06
1.09806e-07
2.57093e-06
1.10981e-07
2.45836e-06
1.12564e-07
2.34343e-06
1.14929e-07
2.22669e-06
1.16739e-07
2.10799e-06
1.18707e-07
1.987e-06
1.20991e-07
1.86583e-06
1.21166e-07
1.7433e-06
1.22531e-07
1.62065e-06
1.2265e-07
1.50091e-06
1.19737e-07
1.38454e-06
1.1637e-07
1.27481e-06
1.09732e-07
1.17578e-06
9.90309e-08
1.09024e-06
8.55413e-08
1.02004e-06
7.01958e-08
9.65286e-07
5.47573e-08
9.24772e-07
4.05143e-08
8.9723e-07
2.75423e-08
8.77901e-07
1.93285e-08
8.6267e-07
1.52309e-08
8.52374e-07
1.02967e-08
8.44547e-07
7.82691e-09
8.36263e-07
8.28359e-09
8.28316e-07
7.94656e-09
8.19488e-07
8.82837e-09
8.10035e-07
9.45299e-09
8.01821e-07
8.21432e-09
7.93698e-07
8.12289e-09
7.84597e-07
9.10124e-09
7.74598e-07
9.9989e-09
7.63837e-07
1.07612e-08
7.54147e-07
9.68985e-09
7.45617e-07
8.52989e-09
7.35505e-07
1.0112e-08
7.24458e-07
1.1047e-08
7.15572e-07
8.88588e-09
7.08176e-07
7.39635e-09
7.00033e-07
8.14278e-09
6.91708e-07
8.32465e-09
6.84754e-07
6.95371e-09
6.78881e-07
5.87306e-09
6.72763e-07
6.11858e-09
6.66858e-07
5.90486e-09
6.61995e-07
4.86295e-09
6.57399e-07
4.59611e-09
6.52851e-07
4.54794e-09
6.49144e-07
3.70639e-09
6.45894e-07
3.25093e-09
6.42863e-07
3.03065e-09
6.4055e-07
2.31288e-09
6.38523e-07
2.0267e-09
6.36487e-07
2.03611e-09
6.35038e-07
1.44913e-09
6.33982e-07
1.05622e-09
6.32739e-07
1.24242e-09
6.3174e-07
9.99756e-10
6.31321e-07
4.18857e-10
6.30926e-07
3.94842e-10
6.30402e-07
5.2437e-10
6.30085e-07
3.16181e-10
6.30038e-07
4.71617e-11
6.29959e-07
7.9483e-11
6.29842e-07
1.1698e-10
6.29788e-07
5.40659e-11
6.29804e-07
-1.59542e-11
6.29823e-07
-1.88167e-11
6.29859e-07
-3.68389e-11
6.29903e-07
-4.34948e-11
6.29988e-07
-8.48275e-11
6.30042e-07
-5.4012e-11
6.30135e-07
-9.33805e-11
6.30189e-07
-5.36553e-11
6.30267e-07
-7.86139e-11
6.3032e-07
-5.22571e-11
6.30361e-07
-4.10818e-11
6.30401e-07
-4.00141e-11
6.30406e-07
-5.51185e-12
6.30412e-07
-5.55726e-12
6.30389e-07
2.31178e-11
6.30339e-07
4.9723e-11
6.30254e-07
8.50653e-11
6.30125e-07
1.29334e-10
6.29876e-07
2.48576e-10
6.29554e-07
3.21603e-10
6.28896e-07
6.58417e-10
6.2808e-07
8.15609e-10
6.25895e-07
2.18499e-09
6.21569e-09
4.18172e-06
9.18024e-08
4.194e-06
7.3479e-08
4.19677e-06
8.96794e-08
4.19335e-06
9.79163e-08
4.18545e-06
1.04316e-07
4.17262e-06
1.1203e-07
4.15645e-06
1.17825e-07
4.13703e-06
1.23119e-07
4.11545e-06
1.27495e-07
4.09163e-06
1.31119e-07
4.06598e-06
1.34178e-07
4.03758e-06
1.38205e-07
4.00577e-06
1.42797e-07
3.97073e-06
1.47605e-07
3.93105e-06
1.54604e-07
3.88806e-06
1.59733e-07
3.84004e-06
1.66721e-07
3.7876e-06
1.73435e-07
3.73132e-06
1.77443e-07
3.67022e-06
1.83637e-07
3.60466e-06
1.88208e-07
3.53621e-06
1.88191e-07
3.46576e-06
1.86812e-07
3.39277e-06
1.82723e-07
3.31982e-06
1.71985e-07
3.24885e-06
1.56512e-07
3.18278e-06
1.36266e-07
3.11925e-06
1.18288e-07
3.05971e-06
1.0005e-07
3.00962e-06
7.76345e-08
2.96112e-06
6.78295e-08
2.9144e-06
6.19451e-08
2.873e-06
5.16998e-08
2.8318e-06
4.90282e-08
2.79161e-06
4.84738e-08
2.75217e-06
4.73874e-08
2.71226e-06
4.87395e-08
2.67316e-06
4.855e-08
2.63484e-06
4.65348e-08
2.59892e-06
4.40421e-08
2.56346e-06
4.45598e-08
2.52557e-06
4.78874e-08
2.48811e-06
4.82198e-08
2.45387e-06
4.39306e-08
2.42117e-06
4.12332e-08
2.3868e-06
4.4481e-08
2.35222e-06
4.56279e-08
2.3214e-06
3.97018e-08
2.29205e-06
3.67523e-08
2.26145e-06
3.87396e-08
2.23311e-06
3.66675e-08
2.20832e-06
3.17466e-08
2.18402e-06
3.01722e-08
2.16006e-06
3.00706e-08
2.13848e-06
2.74902e-08
2.11876e-06
2.45838e-08
2.09976e-06
2.35903e-08
2.08222e-06
2.20956e-08
2.06676e-06
1.91587e-08
2.05278e-06
1.72333e-08
2.04007e-06
1.57402e-08
2.02891e-06
1.34732e-08
2.01902e-06
1.19146e-08
2.01027e-06
1.0795e-08
2.00273e-06
8.97957e-09
1.99609e-06
7.69867e-09
1.99014e-06
7.19944e-09
1.98521e-06
5.92046e-09
1.98128e-06
4.35071e-09
1.97786e-06
3.81746e-09
1.97494e-06
3.44744e-09
1.97273e-06
2.52532e-09
1.9711e-06
1.67665e-09
1.96975e-06
1.42823e-09
1.96864e-06
1.22599e-09
1.96782e-06
8.79888e-10
1.96722e-06
5.8014e-10
1.96679e-06
4.06871e-10
1.96652e-06
2.36034e-10
1.96639e-06
8.72285e-11
1.96639e-06
-8.04112e-11
1.96646e-06
-1.29714e-10
1.96662e-06
-2.51104e-10
1.96682e-06
-2.5284e-10
1.96704e-06
-2.99895e-10
1.96728e-06
-2.92896e-10
1.96747e-06
-2.27069e-10
1.96768e-06
-2.54796e-10
1.96777e-06
-9.6835e-11
1.96793e-06
-1.6121e-10
1.96789e-06
5.82028e-11
1.96799e-06
-4.51032e-11
1.96777e-06
3.0368e-10
1.9678e-06
9.71479e-11
1.96727e-06
7.77153e-10
1.9671e-06
4.90886e-10
1.96605e-06
1.70853e-09
1.96498e-06
1.89136e-09
1.96291e-06
4.25375e-09
1.34705e-08
4.5142e-06
7.99159e-08
4.53016e-06
5.75177e-08
4.54163e-06
7.82133e-08
4.54715e-06
9.23985e-08
4.54922e-06
1.02241e-07
4.54836e-06
1.12897e-07
4.5463e-06
1.19878e-07
4.54336e-06
1.26062e-07
4.54081e-06
1.3005e-07
4.53868e-06
1.33245e-07
4.5369e-06
1.35962e-07
4.53503e-06
1.40067e-07
4.53176e-06
1.46068e-07
4.52772e-06
1.51649e-07
4.52185e-06
1.60472e-07
4.51494e-06
1.66646e-07
4.50578e-06
1.75886e-07
4.49495e-06
1.84263e-07
4.48254e-06
1.8985e-07
4.46768e-06
1.98496e-07
4.45078e-06
2.0511e-07
4.43179e-06
2.07179e-07
4.412e-06
2.06604e-07
4.38952e-06
2.052e-07
4.36472e-06
1.96784e-07
4.3391e-06
1.82139e-07
4.31345e-06
1.61907e-07
4.28646e-06
1.45279e-07
4.25836e-06
1.28157e-07
4.23423e-06
1.01761e-07
4.21002e-06
9.20359e-08
4.18438e-06
8.75853e-08
4.16167e-06
7.44094e-08
4.13793e-06
7.27685e-08
4.11306e-06
7.33434e-08
4.08881e-06
7.1644e-08
4.06292e-06
7.46313e-08
4.03668e-06
7.47857e-08
4.01061e-06
7.26076e-08
3.98448e-06
7.01737e-08
3.95852e-06
7.05126e-08
3.9305e-06
7.59118e-08
3.90103e-06
7.76915e-08
3.87324e-06
7.17209e-08
3.84587e-06
6.8596e-08
3.81648e-06
7.38738e-08
3.7864e-06
7.57068e-08
3.75805e-06
6.80506e-08
3.73024e-06
6.45609e-08
3.70067e-06
6.83161e-08
3.67124e-06
6.60926e-08
3.64426e-06
5.87333e-08
3.61731e-06
5.71146e-08
3.58961e-06
5.77714e-08
3.56394e-06
5.31599e-08
3.53995e-06
4.85794e-08
3.51567e-06
4.78722e-08
3.49206e-06
4.57036e-08
3.46983e-06
4.13873e-08
3.44842e-06
3.86421e-08
3.42838e-06
3.57844e-08
3.41003e-06
3.18193e-08
3.3928e-06
2.91412e-08
3.37691e-06
2.66901e-08
3.36255e-06
2.33368e-08
3.34912e-06
2.11275e-08
3.33655e-06
1.97771e-08
3.32536e-06
1.71091e-08
3.3154e-06
1.43118e-08
3.30624e-06
1.29682e-08
3.29803e-06
1.1663e-08
3.29099e-06
9.56737e-09
3.28492e-06
7.74455e-09
3.27962e-06
6.73103e-09
3.27504e-06
5.80334e-09
3.2712e-06
4.71819e-09
3.26799e-06
3.78769e-09
3.26536e-06
3.03738e-09
3.26325e-06
2.35342e-09
3.26162e-06
1.71126e-09
3.26039e-06
1.14808e-09
3.25955e-06
7.09043e-10
3.25901e-06
2.91118e-10
3.2588e-06
-3.95297e-11
3.25878e-06
-2.85905e-10
3.25901e-06
-5.22852e-10
3.2593e-06
-5.13523e-10
3.25974e-06
-6.98463e-10
3.26008e-06
-4.30068e-10
3.26054e-06
-6.23091e-10
3.26073e-06
-1.34132e-10
3.26108e-06
-3.97876e-10
3.26105e-06
3.42569e-10
3.2612e-06
-5.71556e-11
3.26089e-06
1.08266e-09
3.26067e-06
7.1664e-10
3.26007e-06
2.30326e-09
3.25874e-06
3.22941e-09
3.25757e-06
5.42141e-09
1.87103e-08
4.87547e-06
4.89115e-08
4.89103e-06
4.19551e-08
4.90494e-06
6.43049e-08
4.91212e-06
8.5218e-08
4.91457e-06
9.97921e-08
4.91438e-06
1.13086e-07
4.91305e-06
1.21209e-07
4.91147e-06
1.27638e-07
4.91077e-06
1.30755e-07
4.91148e-06
1.32529e-07
4.91297e-06
1.34476e-07
4.91514e-06
1.37895e-07
4.91687e-06
1.44339e-07
4.91845e-06
1.50063e-07
4.91969e-06
1.59233e-07
4.92056e-06
1.65773e-07
4.92081e-06
1.7564e-07
4.921e-06
1.84073e-07
4.92116e-06
1.89687e-07
4.92066e-06
1.99e-07
4.92017e-06
2.05596e-07
4.91918e-06
2.08178e-07
4.91861e-06
2.07169e-07
4.91716e-06
2.06649e-07
4.91355e-06
2.00391e-07
4.90923e-06
1.86465e-07
4.90395e-06
1.67186e-07
4.89681e-06
1.52419e-07
4.88796e-06
1.37005e-07
4.88017e-06
1.09553e-07
4.87246e-06
9.97402e-08
4.86331e-06
9.67382e-08
4.85553e-06
8.21876e-08
4.84742e-06
8.08781e-08
4.83806e-06
8.27066e-08
4.82929e-06
8.04144e-08
4.81961e-06
8.43075e-08
4.8093e-06
8.51003e-08
4.79918e-06
8.27241e-08
4.78873e-06
8.06245e-08
4.7783e-06
8.09459e-08
4.76694e-06
8.72701e-08
4.75434e-06
9.0296e-08
4.7421e-06
8.39614e-08
4.72981e-06
8.08846e-08
4.71627e-06
8.74149e-08
4.70207e-06
8.99024e-08
4.68833e-06
8.17911e-08
4.67465e-06
7.82426e-08
4.65976e-06
8.32061e-08
4.64427e-06
8.15766e-08
4.62969e-06
7.33125e-08
4.61474e-06
7.20654e-08
4.59853e-06
7.39877e-08
4.5829e-06
6.87891e-08
4.56807e-06
6.34048e-08
4.55271e-06
6.32385e-08
4.53748e-06
6.0929e-08
4.52305e-06
5.58148e-08
4.50877e-06
5.29258e-08
4.49471e-06
4.98438e-08
4.48106e-06
4.54671e-08
4.4674e-06
4.28078e-08
4.45404e-06
4.0049e-08
4.4416e-06
3.57771e-08
4.42993e-06
3.27972e-08
4.41893e-06
3.07749e-08
4.40885e-06
2.71851e-08
4.39946e-06
2.37004e-08
4.39043e-06
2.20064e-08
4.38183e-06
2.02551e-08
4.37392e-06
1.74822e-08
4.36661e-06
1.50548e-08
4.35985e-06
1.34904e-08
4.3537e-06
1.19564e-08
4.3482e-06
1.02134e-08
4.34332e-06
8.66524e-09
4.33905e-06
7.31382e-09
4.33534e-06
6.06281e-09
4.33219e-06
4.85508e-09
4.32953e-06
3.81246e-09
4.32736e-06
2.8784e-09
4.32561e-06
2.04327e-09
4.32431e-06
1.26234e-09
4.32337e-06
6.53048e-10
4.3228e-06
4.41807e-11
4.3225e-06
-2.1409e-10
4.3225e-06
-6.9978e-10
4.32265e-06
-5.78841e-10
4.32304e-06
-1.00995e-09
4.32342e-06
-5.15097e-10
4.32391e-06
-8.89762e-10
4.32427e-06
-1.81601e-11
4.32456e-06
-3.42746e-10
4.32472e-06
9.17546e-10
4.32453e-06
9.09253e-10
4.32448e-06
2.35207e-09
4.32324e-06
4.46806e-09
4.3228e-06
5.86107e-09
2.163e-08
5.26734e-06
-1.48594e-09
5.28263e-06
2.66643e-08
5.29767e-06
4.92732e-08
5.30574e-06
7.71452e-08
5.30808e-06
9.74494e-08
5.3077e-06
1.13466e-07
5.30619e-06
1.22719e-07
5.30458e-06
1.29255e-07
5.30396e-06
1.31369e-07
5.30511e-06
1.31385e-07
5.30692e-06
1.32658e-07
5.30944e-06
1.35375e-07
5.31185e-06
1.41933e-07
5.31415e-06
1.47758e-07
5.31639e-06
1.56994e-07
5.31814e-06
1.64027e-07
5.31978e-06
1.73996e-07
5.32173e-06
1.82126e-07
5.32395e-06
1.87465e-07
5.32612e-06
1.96833e-07
5.32912e-06
2.02591e-07
5.33222e-06
2.05086e-07
5.33594e-06
2.03444e-07
5.33981e-06
2.02777e-07
5.34186e-06
1.98349e-07
5.34323e-06
1.85089e-07
5.34367e-06
1.66747e-07
5.34271e-06
1.5338e-07