/*--------------------------------*- C++ -*----------------------------------*\
  =========                 |
  \\      /  F ield         | OpenFOAM: The Open Source CFD Toolbox
   \\    /   O peration     | Website:  https://openfoam.org
    \\  /    A nd           | Version:  6
     \\/     M anipulation  |
\*---------------------------------------------------------------------------*/
FoamFile
{
    version     2.0;
    format      ascii;
    class       volVectorField;
    location    "0.5";
    object      U;
}
// * * * * * * * * * * * * * * * * * * * * * * * * * * * * * * * * * * * * * //

dimensions      [0 1 -1 0 0 0 0];

internalField   nonuniform List<vector> 
4800
(
(0.960212 2.47263e-05 0)
(1.03926 -0.000156892 0)
(0.963311 -3.23977e-05 0)
(1.03541 0.000210078 0)
(0.967364 0.000207773 0)
(1.03206 -0.000119796 0)
(0.970124 -3.5499e-05 0)
(1.02818 -0.000243265 0)
(0.97281 -0.000463381 0)
(1.02474 -0.000343585 0)
(0.976573 -0.000142941 0)
(1.02353 -6.36286e-05 0)
(0.981199 0.000444737 0)
(1.02324 0.000275038 0)
(0.98668 0.000637086 0)
(1.02349 0.000330508 0)
(0.991992 0.00044073 0)
(1.02322 0.000224719 0)
(0.995104 0.000134738 0)
(1.02153 0.00012633 0)
(0.982661 2.0089e-05 0)
(1.01487 -0.000118701 0)
(0.986314 -0.000147391 0)
(1.01132 0.000323698 0)
(0.990263 7.5081e-06 0)
(1.00864 6.24116e-05 0)
(0.992521 -0.000287483 0)
(1.00588 3.32551e-06 0)
(0.994587 -0.000521895 0)
(1.00372 -0.000145733 0)
(0.99708 -0.000445146 0)
(1.00408 -0.000130375 0)
(0.999914 0.000153025 0)
(1.00549 0.000302809 0)
(1.00365 0.000515139 0)
(1.00751 0.000354444 0)
(1.00719 0.000338507 0)
(1.00898 0.000225921 0)
(1.00886 1.02158e-05 0)
(1.00882 0.000377233 0)
(0.995975 9.01324e-06 0)
(1.00278 2.7062e-05 0)
(0.997116 -0.000368155 0)
(1.00142 0.000595977 0)
(0.998404 -0.000261511 0)
(1.00095 0.000386064 0)
(0.998674 -0.000691475 0)
(1.00013 0.000371306 0)
(0.999184 -0.000686289 0)
(0.999707 0.000161535 0)
(1.0001 -0.000924391 0)
(1.00128 -0.000139137 0)
(1.00165 -0.000336185 0)
(1.00345 0.00049373 0)
(1.0044 0.000268514 0)
(1.00606 0.000598382 0)
(1.00731 0.000119249 0)
(1.00806 0.000290134 0)
(1.00876 -0.000135825 0)
(1.00831 0.000602584 0)
(0.999477 -7.25512e-06 0)
(1.00028 0.000135652 0)
(0.999474 -0.000464314 0)
(0.99981 0.000675507 0)
(0.999722 -0.000257038 0)
(0.999912 0.00040056 0)
(0.999569 -0.000746907 0)
(0.999642 0.00036996 0)
(0.999667 -0.00058074 0)
(0.999633 0.000218338 0)
(1.00038 -0.000975008 0)
(1.00121 -0.000410691 0)
(1.00189 -0.000487231 0)
(1.00323 0.000253149 0)
(1.00438 0.000205886 0)
(1.00575 0.000483186 0)
(1.00707 -1.07145e-05 0)
(1.00785 0.000202712 0)
(1.00859 -5.03905e-05 0)
(1.00841 0.000730064 0)
(1 -9.2434e-06 0)
(1 5.91684e-05 0)
(0.999804 -0.000316271 0)
(0.999722 0.000386227 0)
(0.99986 8.08713e-05 0)
(0.999802 0.000146939 0)
(0.999717 -0.000429945 0)
(0.999744 -5.29702e-07 0)
(0.999683 -0.000248486 0)
(0.999724 -2.82386e-05 0)
(1.00046 -0.000702301 0)
(1.00125 -0.000752179 0)
(1.00212 -0.000478017 0)
(1.00326 -0.000292284 0)
(1.00444 0.000141209 0)
(1.00571 -1.381e-06 0)
(1.00697 -2.67994e-05 0)
(1.00788 7.98308e-05 0)
(1.0086 0.000223396 0)
(1.00864 0.000757188 0)
(1.00005 6.94045e-05 0)
(0.999978 -0.000203906 0)
(0.999839 -1.13058e-05 0)
(0.999758 -7.58683e-05 0)
(0.999874 0.000470052 0)
(0.99975 -0.000133575 0)
(0.999727 -7.53002e-05 0)
(0.99982 -0.000356613 0)
(0.999666 -0.000118306 0)
(0.999704 -0.00029943 0)
(1.00047 -0.000394438 0)
(1.00125 -0.00087369 0)
(1.00222 -0.000533777 0)
(1.00333 -0.000764616 0)
(1.00448 -0.000233945 0)
(1.00574 -0.000543244 0)
(1.00699 -0.0001296 0)
(1.00798 8.6727e-06 0)
(1.00867 0.000437843 0)
(1.00879 0.000652779 0)
(1.00004 0.000104768 0)
(0.999988 -0.00020599 0)
(0.999838 7.50518e-05 0)
(0.999791 -0.000198086 0)
(0.999875 0.00043194 0)
(0.999722 -4.14036e-05 0)
(0.999707 -5.39626e-07 0)
(0.999841 -0.000347024 0)
(0.999665 -0.000411693 0)
(0.999691 -0.000244642 0)
(1.00044 -0.000433375 0)
(1.00122 -0.00070839 0)
(1.00222 -0.000781071 0)
(1.00335 -0.00104979 0)
(1.0045 -0.000907529 0)
(1.0058 -0.000872017 0)
(1.00708 -0.000414358 0)
(1.0081 2.69173e-05 0)
(1.00876 0.00047588 0)
(1.00884 0.000630388 0)
(1.00004 -5.81197e-05 0)
(0.999991 0.000230794 0)
(0.999827 -0.000188686 0)
(0.999807 0.00018786 0)
(0.999879 2.20909e-05 0)
(0.999708 0.000345816 0)
(0.99968 -0.000145589 0)
(0.999814 -6.32875e-05 0)
(0.999667 -0.000790938 0)
(0.999691 -0.000126913 0)
(1.0004 -0.000727079 0)
(1.00119 -0.000451764 0)
(1.00216 -0.00107033 0)
(1.00333 -0.00119624 0)
(1.00452 -0.00147342 0)
(1.00589 -0.000988032 0)
(1.00722 -0.000746386 0)
(1.00826 4.6903e-05 0)
(1.00886 0.000322928 0)
(1.00885 0.000608452 0)
(1.00004 -9.09633e-05 0)
(0.99997 0.000333004 0)
(0.999816 -0.000189475 0)
(0.999806 0.000265287 0)
(0.999876 -2.93364e-05 0)
(0.999695 0.000143088 0)
(0.999649 0.000163093 0)
(0.999754 -0.000192489 0)
(0.999653 -0.00058868 0)
(0.999688 -0.000501214 0)
(1.00038 -0.00061349 0)
(1.00116 -0.000712756 0)
(1.00207 -0.00106821 0)
(1.00327 -0.00153016 0)
(1.00455 -0.00155201 0)
(1.00599 -0.00126882 0)
(1.00737 -0.000847497 0)
(1.00842 -0.000234633 0)
(1.00896 0.000216 0)
(1.00891 0.00033541 0)
(1.00005 5.20146e-05 0)
(0.999947 -1.97867e-05 0)
(0.999811 8.62687e-05 0)
(0.999801 -9.57587e-05 0)
(0.99986 0.000326892 0)
(0.999702 -0.000496924 0)
(0.999626 0.000774553 0)
(0.99969 -0.000677813 0)
(0.99963 5.94795e-05 0)
(0.999672 -0.00110797 0)
(1.00036 -0.000265825 0)
(1.00109 -0.00147085 0)
(1.00199 -0.000851463 0)
(1.00321 -0.00196133 0)
(1.00459 -0.00124321 0)
(1.00608 -0.00170593 0)
(1.00754 -0.000712966 0)
(1.00859 -0.000819722 0)
(1.00907 0.000178789 0)
(1.00888 -0.000113727 0)
(1.00004 5.03405e-05 0)
(0.999958 -0.000152821 0)
(0.999804 6.07723e-05 0)
(0.999823 -5.62995e-06 0)
(0.999818 0.000335435 0)
(0.999744 -0.000556511 0)
(0.999604 0.000659546 0)
(0.999664 -0.000556758 0)
(0.999584 0.000212724 0)
(0.999642 -0.00104662 0)
(1.0003 -0.000417716 0)
(1.00105 -0.00165958 0)
(1.00195 -0.0009846 0)
(1.00319 -0.00196806 0)
(1.00462 -0.0012936 0)
(1.00617 -0.00181715 0)
(1.00767 -0.000966135 0)
(1.00875 -0.00126346 0)
(1.00922 -0.000332862 0)
(1.00879 -0.000369987 0)
(1.00001 1.85681e-05 0)
(0.999995 -8.61433e-05 0)
(0.999805 -7.66261e-05 0)
(0.999852 0.00038117 0)
(0.999757 -3.04458e-05 0)
(0.999795 -5.99584e-05 0)
(0.999601 -3.19209e-05 0)
(0.99968 0.000175377 0)
(0.999517 -0.000278405 0)
(0.9996 -0.000357707 0)
(1.0002 -0.000994604 0)
(1.00101 -0.0011578 0)
(1.00189 -0.00168058 0)
(1.00318 -0.00164207 0)
(1.00462 -0.00195994 0)
(1.00625 -0.00153468 0)
(1.00772 -0.00175466 0)
(1.00889 -0.00134416 0)
(1.00943 -0.00129457 0)
(1.00904 -0.000612567 0)
(0.999978 3.97163e-06 0)
(1.00003 -3.21732e-06 0)
(0.999815 -7.08633e-05 0)
(0.999862 0.000475452 0)
(0.999722 -0.00014992 0)
(0.999818 0.000320532 0)
(0.999618 -0.000412542 0)
(0.999677 0.00046874 0)
(0.99945 -0.000703433 0)
(0.999545 3.9824e-05 0)
(1.00009 -0.00117589 0)
(1.00092 -0.00082266 0)
(1.0018 -0.0020108 0)
(1.00317 -0.00146123 0)
(1.00465 -0.00233335 0)
(1.0063 -0.0015108 0)
(1.00774 -0.00231584 0)
(1.00898 -0.00154303 0)
(1.00956 -0.00167434 0)
(1.00961 -0.000473508 0)
(0.999958 -2.68389e-05 0)
(1.00004 9.90987e-05 0)
(0.999822 -1.94346e-05 0)
(0.999871 0.00033544 0)
(0.999714 -1.65147e-05 0)
(0.999791 0.000291823 0)
(0.999604 -0.000388939 0)
(0.999643 0.00014355 0)
(0.999418 -0.000643928 0)
(0.999516 1.49845e-05 0)
(0.999992 -0.000723068 0)
(1.00082 -0.000767687 0)
(1.00171 -0.00160785 0)
(1.00311 -0.00158206 0)
(1.00462 -0.00221901 0)
(1.00628 -0.00199844 0)
(1.00773 -0.00236668 0)
(1.00917 -0.00188517 0)
(1.00995 -0.00126167 0)
(1.01048 0.000479816 0)
(0.99995 -3.95042e-05 0)
(1.00003 0.000175771 0)
(0.99982 -3.5522e-05 0)
(0.999879 0.000133055 0)
(0.999701 -1.06297e-05 0)
(0.999743 0.000184795 0)
(0.999572 -0.000162655 0)
(0.999622 -7.65393e-05 0)
(0.999428 -0.000394562 0)
(0.999522 -9.4735e-05 0)
(0.999899 -0.000292454 0)
(1.00069 -0.000654291 0)
(1.00157 -0.00113077 0)
(1.00298 -0.0016227 0)
(1.00452 -0.00196307 0)
(1.00625 -0.00217829 0)
(1.00781 -0.00198545 0)
(1.00949 -0.00147937 0)
(1.01075 -0.000297909 0)
(1.01167 0.00186789 0)
(0.999957 -1.53809e-05 0)
(1.00001 0.000141302 0)
(0.999811 -9.91389e-05 0)
(0.999878 -5.26565e-05 0)
(0.999711 2.26065e-05 0)
(0.999726 0.000287367 0)
(0.999545 9.36696e-05 0)
(0.999583 -0.000112658 0)
(0.99943 -0.000315408 0)
(0.999532 -0.000177214 0)
(0.99985 -5.3392e-05 0)
(1.00057 -0.00035049 0)
(1.00142 -0.000650134 0)
(1.00283 -0.00122902 0)
(1.00444 -0.0014555 0)
(1.00628 -0.00170175 0)
(1.00806 -0.0012806 0)
(1.00998 -0.000379459 0)
(1.01174 0.000966358 0)
(1.013 0.00317693 0)
(0.999977 8.07303e-06 0)
(0.999966 3.65339e-05 0)
(0.99981 -0.000114045 0)
(0.999885 -4.65248e-05 0)
(0.999758 0.000215773 0)
(0.999717 0.000345657 0)
(0.999498 0.000122475 0)
(0.999514 -0.000125165 0)
(0.999441 -0.000193266 0)
(0.999584 3.82149e-06 0)
(0.999867 0.000193997 0)
(1.0005 -2.9389e-05 0)
(1.00129 -0.000213607 0)
(1.00269 -0.000637246 0)
(1.00436 -0.000777076 0)
(1.00634 -0.000885183 0)
(1.00846 -0.000339453 0)
(1.01065 0.000868726 0)
(1.01278 0.00227932 0)
(1.01427 0.0042169 0)
(1 1.92495e-05 0)
(0.999932 -5.04597e-05 0)
(0.999838 -3.42426e-05 0)
(0.999894 0.00013233 0)
(0.999795 0.000301216 0)
(0.999684 0.000187691 0)
(0.999468 3.47863e-05 0)
(0.999489 7.11961e-05 0)
(0.999493 0.000124684 0)
(0.999626 0.000286918 0)
(0.999857 0.000200692 0)
(1.00042 0.000111455 0)
(1.00122 8.19315e-05 0)
(1.00261 0.000173492 0)
(1.00437 0.000230392 0)
(1.0065 0.000484694 0)
(1.00897 0.00111675 0)
(1.01142 0.00234967 0)
(1.01376 0.00361336 0)
(1.01532 0.00498791 0)
(1.00003 3.98888e-05 0)
(0.999913 -0.000118788 0)
(0.999888 0.000126664 0)
(0.999878 0.000231753 0)
(0.999813 0.000218541 0)
(0.999647 -2.10917e-05 0)
(0.999498 0.000100541 0)
(0.99951 0.000308971 0)
(0.999515 0.000379985 0)
(0.999573 0.000336968 0)
(0.999829 0.000206664 0)
(1.00044 0.000464797 0)
(1.00135 0.000846764 0)
(1.00275 0.00140796 0)
(1.00454 0.00167747 0)
(1.00677 0.00216166 0)
(1.00947 0.00272083 0)
(1.01207 0.00363002 0)
(1.01445 0.00448462 0)
(1.01594 0.00518406 0)
(1.00005 4.34495e-05 0)
(0.999907 -0.000127358 0)
(0.999941 0.000267622 0)
(0.999843 0.000148019 0)
(0.999822 9.66454e-05 0)
(0.999614 -0.00012278 0)
(0.999573 0.000271271 0)
(0.999525 0.000404358 0)
(0.999511 0.000581471 0)
(0.999533 0.000509523 0)
(0.999935 0.000777537 0)
(1.00066 0.00129524 0)
(1.00165 0.00195628 0)
(1.00297 0.00248391 0)
(1.00475 0.00282538 0)
(1.00701 0.00333072 0)
(1.0098 0.00385814 0)
(1.01246 0.00438561 0)
(1.01478 0.00486378 0)
(1.01618 0.00503729 0)
(1.00006 2.86081e-05 0)
(0.999912 -6.17567e-05 0)
(0.999978 0.000261952 0)
(0.999801 -3.59593e-05 0)
(0.999817 3.07587e-05 0)
(0.999608 -3.88591e-05 0)
(0.999688 0.000496696 0)
(0.999552 0.000554282 0)
(0.999581 0.000903236 0)
(0.999611 0.000976538 0)
(1.00016 0.00158703 0)
(1.0009 0.00199815 0)
(1.00191 0.00259422 0)
(1.00313 0.00302952 0)
(1.005 0.00354417 0)
(1.00732 0.00417975 0)
(1.01011 0.00481824 0)
(1.01269 0.00501241 0)
(1.01488 0.00512472 0)
(1.01608 0.00480387 0)
(1.00005 2.76202e-05 0)
(0.999925 -1.59486e-05 0)
(0.999988 0.000122524 0)
(0.999768 -0.000150717 0)
(0.999832 0.000109471 0)
(0.999686 0.00024689 0)
(0.999821 0.00073813 0)
(0.999598 0.000744004 0)
(0.999716 0.00113769 0)
(0.999751 0.00134178 0)
(1.00039 0.00203888 0)
(1.00107 0.00235101 0)
(1.00219 0.003035 0)
(1.00345 0.00366149 0)
(1.00546 0.00445565 0)
(1.00778 0.00506851 0)
(1.01036 0.00549227 0)
(1.01262 0.00525672 0)
(1.01456 0.00487703 0)
(1.01547 0.00409977 0)
(1.00004 3.75316e-05 0)
(0.999941 -3.61254e-05 0)
(0.999972 6.88295e-06 0)
(0.999779 -8.71067e-05 0)
(0.999915 0.000317962 0)
(0.999814 0.000527308 0)
(0.99988 0.000770118 0)
(0.999655 0.00075996 0)
(0.999861 0.00116182 0)
(0.999944 0.00156311 0)
(1.00067 0.00236227 0)
(1.00137 0.00295215 0)
(1.00267 0.00388897 0)
(1.00395 0.00450839 0)
(1.00592 0.00522539 0)
(1.00799 0.0053826 0)
(1.01023 0.00531474 0)
(1.01212 0.00478462 0)
(1.01381 0.00412345 0)
(1.01453 0.0031931 0)
(1.00003 3.79578e-05 0)
(0.999951 -6.05191e-05 0)
(0.999958 4.34007e-06 0)
(0.99986 0.000100769 0)
(1.00002 0.000461609 0)
(0.999867 0.000524206 0)
(0.999871 0.000562104 0)
(0.999774 0.000730336 0)
(1.00006 0.00128819 0)
(1.0003 0.00201963 0)
(1.00112 0.0029838 0)
(1.00189 0.00384484 0)
(1.00313 0.00459812 0)
(1.00427 0.00487667 0)
(1.00605 0.00520914 0)
(1.00779 0.00500801 0)
(1.00986 0.00476696 0)
(1.01153 0.00424528 0)
(1.01302 0.00358299 0)
(1.01355 0.00260616 0)
(1.00003 3.00323e-05 0)
(0.999954 -4.53699e-05 0)
(0.999977 7.48976e-05 0)
(0.999961 0.000245718 0)
(1.00004 0.000363546 0)
(0.99985 0.000311987 0)
(0.999931 0.000449976 0)
(1.00002 0.000974306 0)
(1.00041 0.00176094 0)
(1.00083 0.00267794 0)
(1.00162 0.00355328 0)
(1.00232 0.00420078 0)
(1.00329 0.00448513 0)
(1.00436 0.00468632 0)
(1.006 0.00485469 0)
(1.00762 0.00476919 0)
(1.00955 0.00453205 0)
(1.01097 0.00394981 0)
(1.01209 0.0031006 0)
(1.01235 0.00195131 0)
(1.00002 2.11233e-05 0)
(0.999958 2.33382e-06 0)
(1.00002 0.000125226 0)
(0.999993 0.000214878 0)
(0.999986 0.000152144 0)
(0.999911 0.000262747 0)
(1.00015 0.000687825 0)
(1.00039 0.00147058 0)
(1.00086 0.00221379 0)
(1.00129 0.00292608 0)
(1.00193 0.00340597 0)
(1.00249 0.00373836 0)
(1.00341 0.00405182 0)
(1.00458 0.00456665 0)
(1.00609 0.00480708 0)
(1.00753 0.00482678 0)
(1.00904 0.00429986 0)
(1.01002 0.00346107 0)
(1.01072 0.00233678 0)
(1.01092 0.00129291 0)
(1.00002 2.21684e-05 0)
(0.999961 4.42942e-05 0)
(1.00004 8.68236e-05 0)
(0.999968 0.000102247 0)
(1.00002 0.000140795 0)
(1.00012 0.000508121 0)
(1.00046 0.00106038 0)
(1.00076 0.00171118 0)
(1.00116 0.00207334 0)
(1.0015 0.00248931 0)
(1.00209 0.00275819 0)
(1.00279 0.00329498 0)
(1.00388 0.00401229 0)
(1.00499 0.00467421 0)
(1.00617 0.00483247 0)
(1.00713 0.0046361 0)
(1.00808 0.0038529 0)
(1.00877 0.00300218 0)
(1.00943 0.00209753 0)
(1.01001 0.00161134 0)
(1.00001 3.81964e-05 0)
(0.999961 3.77612e-05 0)
(1.00004 2.99525e-05 0)
(0.999995 0.000120078 0)
(1.00018 0.000344629 0)
(1.00034 0.000736987 0)
(1.0007 0.00112827 0)
(1.00092 0.00137691 0)
(1.00128 0.0015248 0)
(1.0017 0.00196949 0)
(1.00248 0.00246298 0)
(1.00342 0.00336701 0)
(1.00449 0.0040607 0)
(1.00527 0.00449748 0)
(1.006 0.00441415 0)
(1.00651 0.00407715 0)
(1.00719 0.00353058 0)
(1.00793 0.00308036 0)
(1.00891 0.00276057 0)
(1.00986 0.00272452 0)
(1 5.53193e-05 0)
(0.999982 4.42148e-06 0)
(1.00006 7.69533e-05 0)
(1.00009 0.000240564 0)
(1.00032 0.000466013 0)
(1.00044 0.000692304 0)
(1.00078 0.000853807 0)
(1.00097 0.000903813 0)
(1.00152 0.00128863 0)
(1.00214 0.00187812 0)
(1.00311 0.00256973 0)
(1.00403 0.00325073 0)
(1.00482 0.00347998 0)
(1.00529 0.00359423 0)
(1.00573 0.00342933 0)
(1.00616 0.0033022 0)
(1.00691 0.00325385 0)
(1.00781 0.00329402 0)
(1.00894 0.0033897 0)
(1.00984 0.00344324 0)
(1 6.26477e-05 0)
(1.00002 -7.20038e-07 0)
(1.00008 0.000197431 0)
(1.00018 0.000258441 0)
(1.00035 0.000417453 0)
(1.0005 0.000513914 0)
(1.00082 0.000624758 0)
(1.00117 0.000829076 0)
(1.00194 0.00143065 0)
(1.00262 0.00181767 0)
(1.00353 0.00227733 0)
(1.00417 0.00226137 0)
(1.00478 0.00221762 0)
(1.00521 0.00210852 0)
(1.00569 0.00220196 0)
(1.00634 0.00242563 0)
(1.00721 0.0028267 0)
(1.00817 0.00318665 0)
(1.00915 0.00348278 0)
(1.00975 0.00355564 0)
(1.00002 6.67134e-05 0)
(1.00002 2.50779e-05 0)
(1.00009 0.000269258 0)
(1.00022 0.000156409 0)
(1.00035 0.000402914 0)
(1.00061 0.00040725 0)
(1.00092 0.00067067 0)
(1.00153 0.000950326 0)
(1.00219 0.001333 0)
(1.00279 0.00125167 0)
(1.00343 0.00131542 0)
(1.00396 0.000890471 0)
(1.00464 0.000975358 0)
(1.00529 0.000841752 0)
(1.00611 0.00133046 0)
(1.00701 0.00168015 0)
(1.00799 0.00228396 0)
(1.00884 0.00257878 0)
(1.00956 0.00291774 0)
(1.00994 0.00291263 0)
(1.00001 7.95906e-05 0)
(1.00001 3.96509e-05 0)
(1.0001 0.000268184 0)
(1.00025 0.000100724 0)
(1.00042 0.000499846 0)
(1.00073 0.000346982 0)
(1.00107 0.000799552 0)
(1.0017 0.000733787 0)
(1.00206 0.000814111 0)
(1.00264 0.00044265 0)
(1.00312 0.000433872 0)
(1.00387 0.000140321 0)
(1.00469 0.00041896 0)
(1.00566 0.000345595 0)
(1.00674 0.000803933 0)
(1.00768 0.000767273 0)
(1.00855 0.00100696 0)
(1.00924 0.000742796 0)
(1.00977 0.00080544 0)
(1.0101 0.000530914 0)
(0.999974 9.97386e-05 0)
(1.00005 2.11939e-05 0)
(1.00012 0.000270044 0)
(1.00029 0.000146081 0)
(1.00049 0.000548937 0)
(1.00077 0.000261059 0)
(1.00115 0.000742188 0)
(1.00153 0.000246801 0)
(1.00187 0.000391486 0)
(1.00248 1.1155e-05 0)
(1.00308 0.000224993 0)
(1.00399 6.08311e-05 0)
(1.00483 0.000258398 0)
(1.0058 -1.55855e-05 0)
(1.00662 -0.000137672 0)
(1.00729 -0.000830275 0)
(1.00788 -0.00129616 0)
(1.00852 -0.00211585 0)
(1.00925 -0.00248431 0)
(1.01002 -0.00292218 0)
(0.99996 0.000109896 0)
(1.0001 -7.72686e-08 0)
(1.00013 0.000304596 0)
(1.00033 0.000187341 0)
(1.00051 0.000462197 0)
(1.00074 0.000215879 0)
(1.0011 0.00051023 0)
(1.0013 1.8624e-05 0)
(1.0019 0.00033473 0)
(1.00241 -1.3664e-05 0)
(1.0032 0.000226837 0)
(1.00385 -0.00016432 0)
(1.00458 -0.000272582 0)
(1.00505 -0.000884872 0)
(1.00547 -0.00140883 0)
(1.00572 -0.00225084 0)
(1.00625 -0.00290043 0)
(1.00698 -0.00366578 0)
(1.00824 -0.00419991 0)
(1.00975 -0.00464917 0)
(0.999993 9.03657e-05 0)
(1.00009 3.34226e-05 0)
(1.00015 0.00029246 0)
(1.00032 0.000194843 0)
(1.00049 0.000332501 0)
(1.00071 0.000272551 0)
(1.00101 0.000286531 0)
(1.00127 0.000182552 0)
(1.00191 0.000257106 0)
(1.00223 -2.98881e-06 0)
(1.00297 -0.000169324 0)
(1.00322 -0.000650071 0)
(1.0039 -0.00104789 0)
(1.00399 -0.00153517 0)
(1.00447 -0.00189562 0)
(1.0046 -0.0021293 0)
(1.00525 -0.00233881 0)
(1.00579 -0.00254594 0)
(1.0071 -0.00299235 0)
(1.00848 -0.0035149 0)
(1.00002 4.82858e-05 0)
(1.00005 9.96336e-05 0)
(1.00019 0.000196109 0)
(1.00029 0.000231205 0)
(1.0005 0.000248166 0)
(1.00068 0.000326842 0)
(1.00096 0.000188173 0)
(1.00126 0.000322678 0)
(1.00164 -1.52796e-05 0)
(1.00189 -7.33851e-05 0)
(1.00236 -0.000595665 0)
(1.00263 -0.000740274 0)
(1.00328 -0.0012018 0)
(1.00369 -0.00118916 0)
(1.00448 -0.00133143 0)
(1.00491 -0.00101766 0)
(1.00541 -0.00095605 0)
(1.00549 -0.000670528 0)
(1.00578 -0.000869029 0)
(1.00617 -0.00109848 0)
(1.00001 3.51086e-05 0)
(1.00006 0.000100279 0)
(1.00021 0.000110259 0)
(1.0003 0.000256563 0)
(1.00049 0.000171079 0)
(1.00066 0.000318306 0)
(1.00089 0.000136448 0)
(1.0011 0.000241899 0)
(1.00131 -0.000165038 0)
(1.00161 -7.96416e-05 0)
(1.00192 -0.000521227 0)
(1.00247 -0.000368829 0)
(1.00305 -0.000690369 0)
(1.0039 -0.000440782 0)
(1.00467 -0.00060741 0)
(1.00547 -0.000272579 0)
(1.0059 -0.000243951 0)
(1.00607 0.000335044 0)
(1.00586 0.000712574 0)
(1.00591 0.0014952 0)
(0.999978 -1.66459e-05 0)
(1.00012 0.000154744 0)
(1.00017 2.01317e-05 0)
(1.00036 0.000288164 0)
(1.00043 7.30435e-06 0)
(1.00069 0.000342913 0)
(1.00074 2.40176e-05 0)
(1.001 0.000196786 0)
(1.00111 -8.40457e-05 0)
(1.00153 2.8029e-05 0)
(1.0018 -0.000246163 0)
(1.0025 -0.000136941 0)
(1.003 -0.00036901 0)
(1.00396 -0.000173148 0)
(1.00466 -0.000235134 0)
(1.00581 0.000239163 0)
(1.00678 0.000622622 0)
(1.00816 0.00164217 0)
(1.00913 0.00264076 0)
(1.00998 0.00413206 0)
(0.99989 -9.38514e-05 0)
(1.0002 0.000158832 0)
(1.00005 2.66955e-05 0)
(1.00052 0.00013508 0)
(1.00023 6.13478e-05 0)
(1.00089 0.000135918 0)
(1.0005 0.000127733 0)
(1.00111 4.48246e-05 0)
(1.00096 0.000198539 0)
(1.00143 -6.16248e-05 0)
(1.00161 4.24879e-05 0)
(1.00225 -0.000333928 0)
(1.00297 -0.000216558 0)
(1.00418 -0.000398272 0)
(1.00562 9.99082e-05 0)
(1.00758 0.000554803 0)
(1.00962 0.0017411 0)
(1.01184 0.00286185 0)
(1.01354 0.0043521 0)
(1.01454 0.00529027 0)
(0.999886 -5.57313e-05 0)
(1.0002 4.15626e-05 0)
(1.00002 4.86904e-05 0)
(1.0005 -2.63467e-05 0)
(1.00026 0.000113744 0)
(1.00085 -5.34387e-05 0)
(1.00053 0.000152779 0)
(1.0011 -6.87494e-05 0)
(1.00095 0.000202685 0)
(1.00122 -0.000111551 0)
(1.00138 0.00011654 0)
(1.00193 -0.000264368 0)
(1.00296 -3.04189e-05 0)
(1.00459 -0.000288935 0)
(1.00704 0.000163363 0)
(1.01004 0.00027231 0)
(1.01337 0.00108053 0)
(1.0161 0.00154039 0)
(1.0172 0.00240921 0)
(1.01615 0.002577 0)
(0.995065 0.00013056 0)
(0.969148 0.000577864 0)
(0.943309 0.00105879 0)
(0.917849 0.00139153 0)
(0.892752 0.00165801 0)
(0.867651 0.00189454 0)
(0.842316 0.00204663 0)
(0.816408 0.00216049 0)
(0.78987 0.0022709 0)
(0.762603 0.00232079 0)
(0.734633 0.00241848 0)
(0.706143 0.00248124 0)
(0.677456 0.00249045 0)
(0.648529 0.0025216 0)
(0.619286 0.00258453 0)
(0.589326 0.00256112 0)
(0.559069 0.00254625 0)
(0.528174 0.00260792 0)
(0.496929 0.00251724 0)
(0.465613 0.00255606 0)
(0.433715 0.00247335 0)
(0.402488 0.0022659 0)
(0.371658 0.00237643 0)
(0.341801 0.00218347 0)
(0.314921 0.00161651 0)
(0.291068 0.00130194 0)
(0.270803 0.0010308 0)
(0.25485 0.000483274 0)
(0.243073 -4.11552e-05 0)
(0.234818 -0.000387134 0)
(0.228777 -0.000599492 0)
(0.224428 -0.000648625 0)
(0.221305 -0.000625031 0)
(0.218777 -0.000525098 0)
(0.216758 -0.000368484 0)
(0.214699 -0.000266828 0)
(0.212461 -0.000197598 0)
(0.210177 -0.000164007 0)
(0.207892 -0.000132177 0)
(0.205784 -5.47148e-05 0)
(0.203581 -1.12068e-05 0)
(0.201057 4.56542e-06 0)
(0.198401 5.57115e-05 0)
(0.195819 8.6245e-05 0)
(0.193426 5.76094e-05 0)
(0.190973 3.13302e-05 0)
(0.188274 4.726e-05 0)
(0.18575 5.39152e-05 0)
(0.183613 1.80142e-05 0)
(0.181554 -5.33066e-06 0)
(0.179475 7.03334e-06 0)
(0.177549 4.85843e-06 0)
(0.175849 -1.47735e-05 0)
(0.174271 -1.16256e-05 0)
(0.172777 -3.20552e-07 0)
(0.171382 -4.07546e-06 0)
(0.170134 -8.11585e-06 0)
(0.168964 -7.47999e-06 0)
(0.167924 -1.0259e-05 0)
(0.167001 -1.04511e-05 0)
(0.16621 -8.65878e-06 0)
(0.165517 -8.64601e-06 0)
(0.16496 -5.88228e-06 0)
(0.164433 -3.76235e-06 0)
(0.164006 -6.60316e-06 0)
(0.163659 -6.6221e-06 0)
(0.163377 -2.39586e-06 0)
(0.163085 -1.66524e-06 0)
(0.162919 -3.42633e-06 0)
(0.162789 -1.82458e-06 0)
(0.162696 2.21121e-07 0)
(0.162571 -4.73475e-09 0)
(0.162548 -8.30547e-07 0)
(0.162504 -2.15267e-07 0)
(0.16251 7.58439e-08 0)
(0.162457 -9.22777e-08 0)
(0.162487 -2.85852e-07 0)
(0.162454 -6.45079e-08 0)
(0.162503 -4.65858e-08 0)
(0.162468 8.80142e-08 0)
(0.162534 -4.62977e-08 0)
(0.162498 2.12846e-07 0)
(0.162578 -1.69417e-08 0)
(0.16253 2.07975e-07 0)
(0.162621 -4.21987e-08 0)
(0.162557 1.02526e-07 0)
(0.162659 -1.60948e-08 0)
(0.162571 5.84469e-08 0)
(0.162685 5.17041e-08 0)
(0.162565 2.19821e-07 0)
(0.162701 1.62327e-07 0)
(0.162532 6.46912e-07 0)
(0.162703 4.70557e-07 0)
(0.16245 1.48397e-06 0)
(0.162677 1.41209e-06 0)
(0.162261 3.07484e-06 0)
(0.162576 5.44291e-06 0)
(0.161794 3.26402e-06 0)
(0.162313 2.57709e-05 0)
(0.160106 3.98549e-05 0)
(1.00801 0.000651159 0)
(1.00557 0.00181413 0)
(1.00344 0.0030433 0)
(1.00096 0.00385018 0)
(0.999113 0.00444415 0)
(0.996695 0.00492254 0)
(0.994042 0.00518512 0)
(0.990658 0.00531643 0)
(0.986254 0.00540901 0)
(0.981364 0.00543371 0)
(0.974996 0.00549221 0)
(0.96853 0.00559125 0)
(0.960712 0.00563108 0)
(0.952894 0.00572205 0)
(0.943842 0.00586343 0)
(0.933996 0.00592688 0)
(0.923376 0.00602226 0)
(0.911266 0.00616959 0)
(0.898602 0.00619873 0)
(0.884358 0.0062507 0)
(0.869378 0.00625555 0)
(0.853048 0.00614169 0)
(0.83638 0.00610677 0)
(0.818616 0.00594825 0)
(0.801248 0.00558127 0)
(0.784124 0.005072 0)
(0.767374 0.00449984 0)
(0.752638 0.0039644 0)
(0.737669 0.00324887 0)
(0.725218 0.00251622 0)
(0.713699 0.00204883 0)
(0.701579 0.00165038 0)
(0.691699 0.00129536 0)
(0.681322 0.00108119 0)
(0.67144 0.000968691 0)
(0.662299 0.000895489 0)
(0.652367 0.000847277 0)
(0.643285 0.000796892 0)
(0.633988 0.000675217 0)
(0.624802 0.000600102 0)
(0.61672 0.000659757 0)
(0.607829 0.000686021 0)
(0.598609 0.000620437 0)
(0.59027 0.000539477 0)
(0.582266 0.00053602 0)
(0.574204 0.000600548 0)
(0.565936 0.000558883 0)
(0.558167 0.000441208 0)
(0.551115 0.000420655 0)
(0.543753 0.000416187 0)
(0.536583 0.000347475 0)
(0.530512 0.000300197 0)
(0.524672 0.000280157 0)
(0.51865 0.000249353 0)
(0.513339 0.0002119 0)
(0.508491 0.000179989 0)
(0.503772 0.000159545 0)
(0.499384 0.000135446 0)
(0.495532 0.000101095 0)
(0.491942 8.41689e-05 0)
(0.488821 7.26421e-05 0)
(0.48595 4.82936e-05 0)
(0.48343 3.64509e-05 0)
(0.481193 3.55963e-05 0)
(0.479345 2.21527e-05 0)
(0.477562 1.05717e-05 0)
(0.476093 1.15596e-05 0)
(0.47479 6.54824e-06 0)
(0.473797 -3.67836e-06 0)
(0.472826 -3.3337e-06 0)
(0.472151 -4.33167e-07 0)
(0.471484 -3.10648e-06 0)
(0.47111 -6.11839e-06 0)
(0.470658 -3.76472e-06 0)
(0.470474 -2.13437e-06 0)
(0.47014 -2.59767e-06 0)
(0.470088 -3.22294e-06 0)
(0.469839 -2.78889e-06 0)
(0.469895 -2.71543e-06 0)
(0.469701 -2.4932e-06 0)
(0.469847 -2.81311e-06 0)
(0.469679 -1.89866e-06 0)
(0.469906 -2.18975e-06 0)
(0.469731 -1.13262e-06 0)
(0.470025 -1.26508e-06 0)
(0.469813 -5.85969e-07 0)
(0.470161 -2.91637e-07 0)
(0.469883 -2.608e-07 0)
(0.470281 3.39945e-07 0)
(0.469906 1.61481e-07 0)
(0.470382 8.56433e-07 0)
(0.469852 8.35046e-07 0)
(0.470473 2.30603e-06 0)
(0.469685 1.61947e-06 0)
(0.470557 6.5147e-06 0)
(0.469331 2.99301e-06 0)
(0.470586 1.70246e-05 0)
(0.468622 9.27814e-06 0)
(0.470318 3.70682e-05 0)
(0.467026 0.000103632 0)
(1.00778 0.00108728 0)
(1.00602 0.00240587 0)
(1.00491 0.00381855 0)
(1.00403 0.00478877 0)
(1.00418 0.00541535 0)
(1.00451 0.00599261 0)
(1.00491 0.00626184 0)
(1.00539 0.00640437 0)
(1.00522 0.00644878 0)
(1.00528 0.00646635 0)
(1.00441 0.00648204 0)
(1.00392 0.00657442 0)
(1.00284 0.00673609 0)
(1.00205 0.00685694 0)
(1.00094 0.0071095 0)
(0.999461 0.00721494 0)
(0.997996 0.00740892 0)
(0.995698 0.00761061 0)
(0.993444 0.00768038 0)
(0.990197 0.00781317 0)
(0.986861 0.00790356 0)
(0.982667 0.00787254 0)
(0.978217 0.00777482 0)
(0.973161 0.00769782 0)
(0.967921 0.00736851 0)
(0.962562 0.0068531 0)
(0.956699 0.00618187 0)
(0.951305 0.00557209 0)
(0.945347 0.00496168 0)
(0.939835 0.00401275 0)
(0.934679 0.00350391 0)
(0.928695 0.00318992 0)
(0.923619 0.00265048 0)
(0.918174 0.00246048 0)
(0.912538 0.00233846 0)
(0.907331 0.0021853 0)
(0.901575 0.00218177 0)
(0.895918 0.00209203 0)
(0.890259 0.001971 0)
(0.884197 0.00184773 0)
(0.878594 0.0017806 0)
(0.872703 0.00185762 0)
(0.866177 0.00185941 0)
(0.859987 0.00168236 0)
(0.853904 0.00155754 0)
(0.847445 0.00162728 0)
(0.840989 0.00165028 0)
(0.834611 0.00145246 0)
(0.828344 0.00132794 0)
(0.821927 0.00137494 0)
(0.815337 0.00130245 0)
(0.809197 0.00112222 0)
(0.803336 0.00105243 0)
(0.797023 0.00103001 0)
(0.791186 0.000928378 0)
(0.78582 0.000831768 0)
(0.780424 0.000793262 0)
(0.775042 0.000733665 0)
(0.770121 0.000639908 0)
(0.765144 0.000569208 0)
(0.760619 0.000505563 0)
(0.756355 0.000432573 0)
(0.752441 0.000380396 0)
(0.7487 0.000335469 0)
(0.745511 0.000280849 0)
(0.742312 0.000242976 0)
(0.739492 0.000218629 0)
(0.736823 0.000177409 0)
(0.734596 0.000134979 0)
(0.732328 0.000114957 0)
(0.730539 9.79922e-05 0)
(0.728747 7.19158e-05 0)
(0.727439 4.98865e-05 0)
(0.726014 3.99648e-05 0)
(0.725105 3.19945e-05 0)
(0.723999 2.23366e-05 0)
(0.723417 1.45879e-05 0)
(0.722563 9.34896e-06 0)
(0.722267 4.87333e-06 0)
(0.721616 1.01082e-06 0)
(0.721566 -2.49241e-06 0)
(0.721051 -4.19245e-06 0)
(0.721221 -6.31429e-06 0)
(0.720784 -6.89499e-06 0)
(0.721156 -7.24152e-06 0)
(0.72075 -7.24251e-06 0)
(0.721284 -5.38795e-06 0)
(0.720853 -5.62699e-06 0)
(0.721503 -2.21853e-06 0)
(0.720974 -3.30616e-06 0)
(0.72174 1.06985e-06 0)
(0.721014 -1.414e-06 0)
(0.72195 4.92754e-06 0)
(0.720925 2.66301e-07 0)
(0.722098 1.08192e-05 0)
(0.720675 5.19548e-06 0)
(0.72212 2.01701e-05 0)
(0.72019 2.54715e-05 0)
(0.721778 3.40072e-05 0)
(0.719159 0.000152132 0)
(1.00783 0.00130827 0)
(1.00638 0.00242734 0)
(1.00512 0.0037092 0)
(1.00437 0.00474313 0)
(1.00446 0.00544385 0)
(1.00499 0.00611098 0)
(1.00554 0.00648516 0)
(1.00624 0.00671323 0)
(1.00658 0.00675426 0)
(1.00696 0.0067515 0)
(1.00694 0.00666075 0)
(1.00704 0.00667571 0)
(1.00712 0.0068482 0)
(1.00732 0.00696742 0)
(1.00765 0.00721571 0)
(1.0078 0.00731046 0)
(1.00818 0.00755667 0)
(1.00824 0.00774401 0)
(1.00846 0.00781604 0)
(1.0083 0.00802238 0)
(1.00828 0.00819379 0)
(1.00797 0.00817963 0)
(1.00761 0.00803693 0)
(1.00708 0.00799031 0)
(1.00659 0.00769302 0)
(1.00595 0.00714554 0)
(1.00503 0.00638385 0)
(1.00394 0.00580454 0)
(1.00265 0.00521473 0)
(1.00114 0.00412559 0)
(0.999565 0.00364965 0)
(0.997641 0.0033959 0)
(0.996004 0.00277671 0)
(0.994017 0.00263103 0)
(0.99212 0.002589 0)
(0.990295 0.00244541 0)
(0.988304 0.00249074 0)
(0.986365 0.00245189 0)
(0.984358 0.00233968 0)
(0.982012 0.00220885 0)
(0.97998 0.00215057 0)
(0.977774 0.00229406 0)
(0.975304 0.0023575 0)
(0.972899 0.00214374 0)
(0.970313 0.00198886 0)
(0.96746 0.00212164 0)
(0.964864 0.00218594 0)
(0.962081 0.00194933 0)
(0.959129 0.00180742 0)
(0.956134 0.00190175 0)
(0.953096 0.00184834 0)
(0.950046 0.00162149 0)
(0.947078 0.00154921 0)
(0.943683 0.00156557 0)
(0.940521 0.00143419 0)
(0.937425 0.00128811 0)
(0.934314 0.0012531 0)
(0.931094 0.00118969 0)
(0.928211 0.00107322 0)
(0.925119 0.000997909 0)
(0.92233 0.000921573 0)
(0.919434 0.000818833 0)
(0.916675 0.000744082 0)
(0.913799 0.000672006 0)
(0.911302 0.00058185 0)
(0.908664 0.00052159 0)
(0.906444 0.000482482 0)
(0.904232 0.000417561 0)
(0.902369 0.000352312 0)
(0.900296 0.000316711 0)
(0.898659 0.000282402 0)
(0.896828 0.000233523 0)
(0.89543 0.000191139 0)
(0.893783 0.000164212 0)
(0.892674 0.000140251 0)
(0.891271 0.000114707 0)
(0.890433 9.30321e-05 0)
(0.889254 7.50891e-05 0)
(0.888696 5.92328e-05 0)
(0.887723 4.45195e-05 0)
(0.887427 3.21853e-05 0)
(0.886608 2.18015e-05 0)
(0.886567 1.29342e-05 0)
(0.885861 5.12697e-06 0)
(0.886065 -3.72351e-07 0)
(0.885446 -5.92592e-06 0)
(0.885862 -7.14473e-06 0)
(0.885297 -1.11318e-05 0)
(0.885889 -7.97343e-06 0)
(0.885329 -1.12535e-05 0)
(0.886083 -4.38638e-06 0)
(0.885438 -7.82618e-06 0)
(0.886341 1.98045e-06 0)
(0.88551 -2.28257e-06 0)
(0.88654 1.01859e-05 0)
(0.88546 8.34e-06 0)
(0.886582 1.98046e-05 0)
(0.885219 3.97902e-05 0)
(0.886306 3.39789e-05 0)
(0.884589 0.000186191 0)
(1.00801 0.00126976 0)
(1.00674 0.00204005 0)
(1.00544 0.00306488 0)
(1.0047 0.00423166 0)
(1.00475 0.00513155 0)
(1.00521 0.00592572 0)
(1.0058 0.00644035 0)
(1.00636 0.00675978 0)
(1.0068 0.00680784 0)
(1.00707 0.00668775 0)
(1.00722 0.00650767 0)