/*--------------------------------*- C++ -*----------------------------------*\
  =========                 |
  \\      /  F ield         | OpenFOAM: The Open Source CFD Toolbox
   \\    /   O peration     | Website:  https://openfoam.org
    \\  /    A nd           | Version:  6
     \\/     M anipulation  |
\*---------------------------------------------------------------------------*/
FoamFile
{
    version     2.0;
    format      ascii;
    class       volScalarField;
    location    "0.6";
    object      p;
}
// * * * * * * * * * * * * * * * * * * * * * * * * * * * * * * * * * * * * * //

dimensions      [0 2 -2 0 0 0 0];

internalField   nonuniform List<scalar> 
4800
(
-3.92947e-09
-9.816e-05
-0.000157873
-6.98642e-05
-2.49499e-05
-0.000192298
-0.000574142
-0.00123204
-0.00220524
-0.00338262
-0.00502925
-0.00710266
-0.00933591
-0.0115126
-0.0134369
-0.0149572
-0.0160663
-0.0168189
-0.0172424
-0.017211
-7.02672e-07
-9.57044e-05
-0.000158012
-6.98394e-05
-2.5737e-05
-0.000191379
-0.000571692
-0.00123038
-0.00220683
-0.00338465
-0.00502967
-0.00709984
-0.00932838
-0.0115068
-0.0134366
-0.0149669
-0.0160813
-0.0168355
-0.0172649
-0.0172755
-8.94401e-06
-8.69227e-05
-0.000158145
-6.86146e-05
-3.07143e-05
-0.000187775
-0.000561526
-0.00122402
-0.00221143
-0.00339199
-0.00503311
-0.00708979
-0.00930334
-0.0114851
-0.0134319
-0.0149918
-0.0161252
-0.0168827
-0.0173211
-0.0174435
-2.45516e-05
-7.45798e-05
-0.000156142
-6.75308e-05
-3.99627e-05
-0.000183211
-0.000540422
-0.00121055
-0.00221595
-0.00340592
-0.00503864
-0.00707109
-0.00925702
-0.0114433
-0.0134244
-0.0150361
-0.0162061
-0.0169771
-0.0174265
-0.0176616
-3.66291e-05
-6.71733e-05
-0.000150208
-6.71594e-05
-5.31619e-05
-0.000181984
-0.000510427
-0.00118847
-0.00221425
-0.0034193
-0.00504274
-0.00704502
-0.00919723
-0.0113922
-0.013423
-0.0150999
-0.0163226
-0.017121
-0.0176053
-0.0178534
-3.58917e-05
-6.7576e-05
-0.000142163
-6.45338e-05
-7.09874e-05
-0.000183593
-0.000480109
-0.00115983
-0.0021976
-0.00341951
-0.00503863
-0.00701042
-0.00913967
-0.0113534
-0.0134383
-0.0151819
-0.0164708
-0.0172933
-0.0177664
-0.017969
-3.01138e-05
-6.97941e-05
-0.000135139
-5.62914e-05
-8.85549e-05
-0.000186061
-0.000458021
-0.00112812
-0.00215823
-0.00339668
-0.00501117
-0.00696684
-0.00909826
-0.0113413
-0.0134785
-0.015289
-0.0166468
-0.0174738
-0.0178843
-0.0179938
-3.89355e-05
-7.01785e-05
-0.000127165
-4.47952e-05
-9.7259e-05
-0.000188402
-0.00044235
-0.00109936
-0.00209645
-0.00334199
-0.00494709
-0.00691816
-0.00907148
-0.011352
-0.0135466
-0.0154347
-0.0168414
-0.0176597
-0.0179871
-0.0179823
-6.20086e-05
-7.49322e-05
-0.000111879
-3.95289e-05
-9.27212e-05
-0.000185219
-0.000430769
-0.00107585
-0.00201812
-0.0032519
-0.00485259
-0.00685901
-0.0090427
-0.0113724
-0.0136349
-0.0155852
-0.0170454
-0.0178802
-0.0181431
-0.0180663
-6.99901e-05
-9.18476e-05
-8.68566e-05
-4.80302e-05
-7.88535e-05
-0.000171734
-0.000425059
-0.00104436
-0.00193409
-0.00313838
-0.00474481
-0.00677172
-0.00899739
-0.0113853
-0.0137041
-0.0157213
-0.0172619
-0.0181772
-0.0184275
-0.018152
-5.2693e-05
-0.000116227
-5.72469e-05
-6.84904e-05
-6.41408e-05
-0.000149159
-0.000416471
-0.000993772
-0.00185533
-0.00301846
-0.00462645
-0.00665275
-0.00892866
-0.0113605
-0.0137155
-0.0158258
-0.01749
-0.018562
-0.0188946
-0.0182371
-4.82612e-05
-0.000125275
-3.85634e-05
-8.49543e-05
-5.6518e-05
-0.000118687
-0.000393675
-0.000929994
-0.0017742
-0.00289636
-0.00449195
-0.00652195
-0.00882515
-0.0112596
-0.0136588
-0.0158792
-0.0177041
-0.0189868
-0.0194876
-0.0187413
-7.87325e-05
-0.00010458
-4.31086e-05
-8.2037e-05
-5.75481e-05
-8.62756e-05
-0.000356506
-0.000854743
-0.00167275
-0.00277137
-0.00434651
-0.00638113
-0.00866794
-0.0110856
-0.013545
-0.0158562
-0.0178505
-0.0193934
-0.01992
-0.0196791
-0.000108622
-7.58613e-05
-6.12404e-05
-6.65962e-05
-5.83314e-05
-6.35025e-05
-0.000307607
-0.000763897
-0.00155189
-0.00264078
-0.0041848
-0.00620332
-0.00846586
-0.0108727
-0.0133802
-0.015747
-0.0178786
-0.0198443
-0.0207195
-0.0211332
-0.000117252
-6.65251e-05
-7.55286e-05
-5.1667e-05
-4.70697e-05
-5.32008e-05
-0.00025075
-0.000663333
-0.00141915
-0.00248566
-0.00399128
-0.00598802
-0.00824996
-0.0106425
-0.0131569
-0.0155818
-0.0178591
-0.0202663
-0.0220113
-0.0230204
-0.000124143
-7.6636e-05
-7.73027e-05
-3.60554e-05
-2.10736e-05
-4.84795e-05
-0.00019573
-0.000562102
-0.00127118
-0.00230041
-0.00377642
-0.00576242
-0.00801774
-0.0103803
-0.0128828
-0.0154351
-0.0181044
-0.021065
-0.0235577
-0.025037
-0.00013729
-9.10865e-05
-6.46465e-05
-1.97358e-05
9.78024e-06
-4.75947e-05
-0.000151087
-0.000462119
-0.00111087
-0.00210994
-0.00355847
-0.00551786
-0.00774445
-0.0100872
-0.0126141
-0.0153992
-0.0187294
-0.0222372
-0.0252025
-0.0269495
-0.000151135
-9.58198e-05
-4.78881e-05
-1.01568e-05
2.79882e-05
-4.91881e-05
-0.000113581
-0.000361816
-0.000954019
-0.00193322
-0.00333993
-0.00524372
-0.00743904
-0.00979459
-0.0124297
-0.0155667
-0.0195852
-0.0235663
-0.0267953
-0.0286101
-0.000160355
-8.99051e-05
-4.3679e-05
-1.08986e-05
2.30297e-05
-4.45157e-05
-7.20958e-05
-0.000264365
-0.000819663
-0.0017768
-0.00313097
-0.00495833
-0.0071243
-0.00953057
-0.0123918
-0.0160805
-0.0205859
-0.0248627
-0.0281815
-0.0299155
-0.000157729
-8.63339e-05
-5.52941e-05
-2.15441e-05
-2.08958e-07
-2.53104e-05
-1.98824e-05
-0.000183226
-0.000729923
-0.00165623
-0.0029475
-0.00468003
-0.00683044
-0.00935981
-0.0125602
-0.0168595
-0.0216393
-0.0259831
-0.0292119
-0.0307688
-0.000143948
-9.39387e-05
-7.57765e-05
-4.34083e-05
-2.31176e-05
1.1309e-05
3.41915e-05
-0.000152094
-0.000709788
-0.00159233
-0.00280491
-0.00445167
-0.00663429
-0.00938569
-0.0129974
-0.0176843
-0.0225342
-0.0267467
-0.0297573
-0.0311116
-0.000128031
-0.000110356
-0.00010343
-6.79788e-05
-2.39635e-05
5.5051e-05
4.70335e-05
-0.00021622
-0.000775247
-0.00159662
-0.0027366
-0.00435032
-0.00661756
-0.00964727
-0.0136232
-0.0183444
-0.0230389
-0.0270046
-0.0297823
-0.0309794
-0.000117355
-0.000132183
-0.000131841
-7.57185e-05
-5.99495e-06
6.26703e-05
-4.01995e-05
-0.000383579
-0.000914557
-0.00167091
-0.00278413
-0.00443682
-0.00682198
-0.0101024
-0.014201
-0.0186851
-0.0230513
-0.0267316
-0.0293213
-0.0304232
-0.000115777
-0.000154026
-0.000143184
-6.85669e-05
-1.06528e-05
-1.81444e-05
-0.000233906
-0.000603768
-0.00109411
-0.00182634
-0.00299327
-0.00475891
-0.00727577
-0.0106635
-0.014597
-0.0186531
-0.0225738
-0.0259481
-0.0283713
-0.0294216
-0.000123671
-0.000164605
-0.00013479
-8.03993e-05
-7.97242e-05
-0.000188556
-0.000470882
-0.000817965
-0.00130355
-0.00211308
-0.0034266
-0.00534884
-0.00795309
-0.0111881
-0.0147244
-0.0182565
-0.0216818
-0.0247308
-0.0269842
-0.0280128
-0.00013701
-0.000160716
-0.000131631
-0.00013749
-0.00021059
-0.000392515
-0.000682986
-0.0010233
-0.00160103
-0.0025985
-0.00409736
-0.00613095
-0.00867478
-0.0115402
-0.0145624
-0.0176062
-0.0206018
-0.0233354
-0.0254038
-0.0263969
-0.000153886
-0.000155945
-0.000155767
-0.000228438
-0.000363252
-0.000578121
-0.000867667
-0.00129005
-0.00206518
-0.00326849
-0.00488883
-0.00690027
-0.00920741
-0.0116562
-0.0142299
-0.0169248
-0.019621
-0.0220724
-0.02393
-0.024834
-0.000178465
-0.000162521
-0.000204576
-0.00032809
-0.0005031
-0.000746742
-0.00109745
-0.0016953
-0.00267519
-0.00398895
-0.00559716
-0.00742615
-0.00940817
-0.011546
-0.013862
-0.0163589
-0.0188669
-0.0211188
-0.0228192
-0.0236579
-0.000212305
-0.000182293
-0.000268609
-0.000423912
-0.000630699
-0.000950494
-0.00144204
-0.00222102
-0.00329378
-0.00458227
-0.00602837
-0.0075717
-0.00927553
-0.0112436
-0.0134626
-0.0158719
-0.0183151
-0.0205696
-0.0223377
-0.0232855
-0.000251294
-0.000222588
-0.000340465
-0.000514651
-0.000790904
-0.00123937
-0.00186532
-0.0027373
-0.00377253
-0.00492397
-0.00612254
-0.00742398
-0.00897158
-0.0108194
-0.0129488
-0.0153211
-0.0178646
-0.0203925
-0.0225284
-0.0238184
-0.000291656
-0.000292906
-0.000414184
-0.000629041
-0.0010237
-0.0015729
-0.00224194
-0.0031117
-0.00405907
-0.00505701
-0.0060968
-0.0073133
-0.00874186
-0.0103571
-0.0122229
-0.0144661
-0.0171538
-0.0200972
-0.0228006
-0.0246437
-0.000329616
-0.000389766
-0.000506331
-0.000811413
-0.0012801
-0.0018273
-0.0025034
-0.00334648
-0.00425355
-0.00522374
-0.00630507
-0.00750811
-0.00870042
-0.00989108
-0.0112417
-0.0130538
-0.0155846
-0.0187634
-0.0220443
-0.0246338
-0.000362715
-0.00050424
-0.000651481
-0.00103381
-0.00146365
-0.00197039
-0.00270828
-0.00356178
-0.00451932
-0.00560787
-0.00680549
-0.00792434
-0.00880901
-0.00952597
-0.0102704
-0.0113591
-0.0131788
-0.0159955
-0.0194662
-0.0227144
-0.000402073
-0.000626479
-0.000849945
-0.00120383
-0.00157642
-0.00213021
-0.00292723
-0.00381401
-0.0048648
-0.00605641
-0.00727808
-0.00832136
-0.00911959
-0.00967052
-0.0100891
-0.0105673
-0.0114341
-0.0129952
-0.0154562
-0.0184411
-0.000482937
-0.000740461
-0.00103779
-0.00131169
-0.00172255
-0.00236479
-0.00313374
-0.00403498
-0.00512469
-0.00630203
-0.00752038
-0.00871823
-0.00988024
-0.0108568
-0.0115196
-0.0117708
-0.0117183
-0.0116392
-0.0119644
-0.0131397
-0.00063511
-0.000830701
-0.0011408
-0.00144245
-0.00193683
-0.0025484
-0.00327135
-0.00416856
-0.00522317
-0.00640171
-0.00777185
-0.00937179
-0.0111454
-0.0128675
-0.0141652
-0.0146043
-0.0139704
-0.0125283
-0.011019
-0.0104499
-0.000835283
-0.000894652
-0.00117736
-0.0016014
-0.00210577
-0.00262415
-0.0033573
-0.00423893
-0.00528384
-0.0066164
-0.00829497
-0.0102919
-0.0124434
-0.0145601
-0.0163932
-0.0176173
-0.0178101
-0.016927
-0.0154967
-0.0143865
-0.00101722
-0.000950111
-0.00123662
-0.00171097
-0.00214837
-0.00270765
-0.00344755
-0.00429812
-0.00538431
-0.00687738
-0.0087781
-0.0109892
-0.0133616
-0.015786
-0.0181511
-0.0203819
-0.0224437
-0.0241767
-0.0251227
-0.0247977
-0.00107889
-0.00100096
-0.00130789
-0.00174616
-0.00216404
-0.00285051
-0.00356206
-0.00436515
-0.00542528
-0.00686893
-0.00874284
-0.011077
-0.0139673
-0.0174239
-0.0212943
-0.025248
-0.0288574
-0.0316555
-0.0332596
-0.0331902
-0.00103261
-0.0010356
-0.00134286
-0.00173443
-0.00220446
-0.00293816
-0.00364501
-0.00440914
-0.005394
-0.00670459
-0.00846586
-0.0109023
-0.0143359
-0.0189073
-0.0245215
-0.0307623
-0.036586
-0.0405697
-0.0416945
-0.0395388
-0.0164867
-0.0152123
-0.0140226
-0.0132858
-0.0130312
-0.0131987
-0.0136276
-0.0141213
-0.0146021
-0.015066
-0.0154904
-0.0158459
-0.0161818
-0.0165377
-0.016909
-0.0173446
-0.0178466
-0.0184177
-0.0189931
-0.0195726
-0.02018
-0.0207497
-0.021435
-0.0222409
-0.0230589
-0.0238529
-0.0244978
-0.0249553
-0.0251721
-0.0251838
-0.0250602
-0.0247692
-0.0244443
-0.0241283
-0.0238015
-0.0236278
-0.0235216
-0.0233981
-0.0234251
-0.0234611
-0.0234128
-0.0234734
-0.0235984
-0.0236985
-0.0237691
-0.0238158
-0.0239217
-0.0240456
-0.0241509
-0.0242434
-0.0242811
-0.0243862
-0.0245179
-0.0245456
-0.0246637
-0.0248056
-0.0247681
-0.024847
-0.0250932
-0.0251416
-0.0250813
-0.0251939
-0.0253599
-0.0254068
-0.02542
-0.0255058
-0.0255972
-0.025634
-0.0256854
-0.0257715
-0.0258229
-0.0258624
-0.0259369
-0.0260002
-0.0260381
-0.0260954
-0.0261669
-0.0262198
-0.0262683
-0.026332
-0.0263951
-0.0264529
-0.0265113
-0.0265756
-0.0266391
-0.0267026
-0.0267669
-0.0268335
-0.026899
-0.0269675
-0.0270333
-0.0271027
-0.0271685
-0.0272365
-0.0272987
-0.0273629
-0.0274148
-0.02747
-0.0275077
-0.027551
-0.0166569
-0.0154199
-0.0141984
-0.0134216
-0.0131422
-0.0132843
-0.0136834
-0.0141652
-0.0146419
-0.0150991
-0.0155228
-0.0158814
-0.0162176
-0.0165703
-0.0169426
-0.0173787
-0.0178773
-0.0184436
-0.0190135
-0.0195916
-0.0201979
-0.0207662
-0.0214423
-0.0222326
-0.0230426
-0.0238256
-0.0244554
-0.0249119
-0.0251355
-0.0251526
-0.0250351
-0.0247493
-0.0244306
-0.0241203
-0.0237949
-0.0236241
-0.0235203
-0.023395
-0.0234223
-0.0234598
-0.0234113
-0.0234716
-0.0235963
-0.0236968
-0.0237676
-0.0238142
-0.0239202
-0.0240433
-0.0241488
-0.0242423
-0.0242792
-0.0243843
-0.0245168
-0.0245437
-0.0246623
-0.0248053
-0.0247668
-0.0248453
-0.0250928
-0.0251412
-0.0250801
-0.025193
-0.0253596
-0.0254064
-0.0254195
-0.0255054
-0.025597
-0.0256337
-0.0256851
-0.0257714
-0.0258228
-0.0258622
-0.0259368
-0.0260002
-0.0260381
-0.0260953
-0.0261669
-0.0262198
-0.0262683
-0.026332
-0.0263951
-0.0264529
-0.0265113
-0.0265756
-0.0266391
-0.0267026
-0.0267669
-0.0268335
-0.026899
-0.0269675
-0.0270333
-0.0271028
-0.0271685
-0.0272365
-0.0272987
-0.0273629
-0.0274148
-0.02747
-0.027508
-0.027551
-0.0168905
-0.0156934
-0.0144393
-0.0136088
-0.013293
-0.0133923
-0.0137407
-0.0141977
-0.0146699
-0.0151223
-0.0155474
-0.0159166
-0.0162568
-0.0166078
-0.0169828
-0.0174221
-0.0179195
-0.0184756
-0.0190387
-0.019615
-0.0202158
-0.0207856
-0.0214515
-0.0222151
-0.023004
-0.023764
-0.0243713
-0.0248216
-0.0250557
-0.0250875
-0.0249805
-0.0247061
-0.0243999
-0.0240995
-0.0237826
-0.0236165
-0.0235165
-0.0233931
-0.0234176
-0.0234557
-0.0234112
-0.0234721
-0.0235943
-0.0236934
-0.0237657
-0.0238135
-0.0239189
-0.0240409
-0.0241451
-0.0242393
-0.0242776
-0.0243819
-0.0245137
-0.0245411
-0.0246596
-0.0248029
-0.0247653
-0.0248434
-0.02509
-0.0251389
-0.0250788
-0.0251915
-0.0253576
-0.0254048
-0.0254182
-0.0255043
-0.025596
-0.0256327
-0.0256843
-0.0257707
-0.0258221
-0.0258616
-0.0259363
-0.0259998
-0.0260377
-0.026095
-0.0261667
-0.0262196
-0.0262681
-0.0263318
-0.0263949
-0.0264528
-0.0265113
-0.0265756
-0.0266391
-0.0267026
-0.0267669
-0.0268335
-0.026899
-0.0269675
-0.0270334
-0.0271028
-0.0271685
-0.0272365
-0.0272988
-0.027363
-0.0274149
-0.02747
-0.0275087
-0.0275515
-0.0171232
-0.0159681
-0.0147035
-0.0138299
-0.013471
-0.013512
-0.0137936
-0.0142088
-0.0146735
-0.0151259
-0.0155548
-0.0159416
-0.0162903
-0.0166413
-0.0170184
-0.0174651
-0.0179626
-0.0185032
-0.0190632
-0.0196375
-0.0202298
-0.0208014
-0.0214551
-0.0221852
-0.0229411
-0.0236727
-0.0242543
-0.0246953
-0.0249448
-0.0249961
-0.0249056
-0.0246499
-0.0243541
-0.0240688
-0.0237703
-0.0236051
-0.0235099
-0.0233942
-0.0234108
-0.0234479
-0.0234125
-0.0234742
-0.0235909
-0.0236879
-0.0237634
-0.0238117
-0.0239174
-0.0240399
-0.024138
-0.0242326
-0.024278
-0.0243783
-0.0245066
-0.024539
-0.0246551
-0.0247957
-0.0247645
-0.0248427
-0.0250826
-0.0251331
-0.0250782
-0.0251894
-0.0253526
-0.0254012
-0.0254161
-0.0255017
-0.0255932
-0.0256306
-0.0256824
-0.0257688
-0.0258204
-0.0258603
-0.025935
-0.0259986
-0.0260367
-0.0260941
-0.0261659
-0.0262189
-0.0262676
-0.0263314
-0.0263945
-0.0264525
-0.026511
-0.0265753
-0.0266388
-0.0267024
-0.0267667
-0.0268334
-0.026899
-0.0269675
-0.0270333
-0.0271028
-0.0271685
-0.0272366
-0.0272989
-0.0273631
-0.0274153
-0.02747
-0.02751
-0.0275532
-0.0173193
-0.0162203
-0.0149819
-0.0140943
-0.0136879
-0.0136541
-0.0138537
-0.0142087
-0.0146571
-0.0151108
-0.015548
-0.0159565
-0.0163198
-0.0166727
-0.0170518
-0.0175121
-0.0180077
-0.0185329
-0.0190939
-0.0196633
-0.0202431
-0.0208118
-0.0214485
-0.0221414
-0.0228614
-0.0235614
-0.0241167
-0.0245512
-0.0248166
-0.0248907
-0.0248249
-0.024589
-0.0243016
-0.0240373
-0.0237624
-0.0235962
-0.0235062
-0.0233988
-0.0234029
-0.0234396
-0.0234169
-0.0234769
-0.0235863
-0.0236824
-0.0237607
-0.0238099
-0.0239172
-0.0240389
-0.0241275
-0.024224
-0.0242804
-0.0243734
-0.0244961
-0.0245372
-0.0246494
-0.0247847
-0.0247642
-0.0248428
-0.0250708
-0.0251241
-0.0250786
-0.0251867
-0.0253446
-0.0253957
-0.0254134
-0.0254977
-0.0255887
-0.0256274
-0.0256795
-0.0257655
-0.0258177
-0.025858
-0.0259327
-0.0259965
-0.026035
-0.0260926
-0.0261644
-0.0262177
-0.0262666
-0.0263305
-0.0263937
-0.0264518
-0.0265104
-0.0265748
-0.0266384
-0.026702
-0.0267664
-0.0268332
-0.0268987
-0.0269673
-0.0270332
-0.0271028
-0.0271686
-0.0272366
-0.0272992
-0.0273631
-0.027416
-0.02747
-0.0275119
-0.0275559
-0.0174697
-0.0164474
-0.0152802
-0.0144168
-0.013963
-0.0138364
-0.0139364
-0.014214
-0.0146301
-0.0150818
-0.0155334
-0.0159693
-0.0163524
-0.0167099
-0.0170948
-0.017568
-0.0180601
-0.0185716
-0.0191334
-0.0196912
-0.0202517
-0.0208148
-0.0214279
-0.0220863
-0.0227756
-0.0234394
-0.0239712
-0.0244014
-0.0246799
-0.0247822
-0.0247439
-0.0245267
-0.0242498
-0.0240071
-0.0237583
-0.0235935
-0.023506
-0.0234042
-0.0233947
-0.0234329
-0.0234237
-0.0234791
-0.0235811
-0.023677
-0.0237578
-0.0238097
-0.0239176
-0.0240358
-0.0241151
-0.0242153
-0.0242837
-0.0243677
-0.0244831
-0.0245348
-0.0246432
-0.024772
-0.0247639
-0.0248427
-0.0250565
-0.0251138
-0.0250797
-0.0251832
-0.0253344
-0.0253892
-0.0254103
-0.0254927
-0.0255832
-0.0256238
-0.0256761
-0.0257614
-0.0258142
-0.0258552
-0.0259299
-0.0259939
-0.026033
-0.0260907
-0.0261624
-0.026216
-0.0262653
-0.0263293
-0.0263925
-0.0264508
-0.0265095
-0.0265741
-0.0266377
-0.0267015
-0.0267659
-0.0268328
-0.0268984
-0.0269671
-0.0270331
-0.0271026
-0.0271686
-0.0272366
-0.0272995
-0.0273631
-0.0274168
-0.02747
-0.027514
-0.0275592
-0.0175532
-0.0166504
-0.0156034
-0.0148001
-0.0143068
-0.0140723
-0.014056
-0.01424
-0.0146032
-0.015046
-0.0155171
-0.0159872
-0.0163904
-0.0167576
-0.0171521
-0.0176297
-0.018119
-0.0186178
-0.0191762
-0.0197166
-0.0202551
-0.0208137
-0.0213999
-0.0220279
-0.0226886
-0.0233131
-0.0238244
-0.0242493
-0.0245401
-0.024672
-0.0246589
-0.0244643
-0.0242013
-0.0239763
-0.0237566
-0.0235962
-0.0235066
-0.0234102
-0.0233881
-0.023426
-0.0234302
-0.0234807
-0.0235749
-0.0236701
-0.0237557
-0.0238116
-0.0239161
-0.0240303
-0.0241032
-0.0242057
-0.0242864
-0.0243622
-0.0244681
-0.024531
-0.0246375
-0.0247585
-0.0247625
-0.0248423
-0.0250413
-0.0251028
-0.0250807
-0.025179
-0.0253231
-0.0253825
-0.0254072
-0.0254872
-0.0255771
-0.0256197
-0.0256722
-0.0257569
-0.0258104
-0.0258521
-0.0259266
-0.0259909
-0.0260307
-0.0260885
-0.0261601
-0.0262142
-0.0262638
-0.0263278
-0.0263912
-0.0264497
-0.0265086
-0.0265732
-0.0266369
-0.0267008
-0.0267654
-0.0268323
-0.026898
-0.0269668
-0.0270329
-0.0271025
-0.0271687
-0.0272365
-0.0272999
-0.0273631
-0.0274177
-0.0274702
-0.0275163
-0.0275629
-0.0175693
-0.0168303
-0.0159473
-0.0152293
-0.0147075
-0.014362
-0.0142192
-0.0142949
-0.0145831
-0.0150069
-0.0154991
-0.016002
-0.0164258
-0.0168095
-0.0172183
-0.0176945
-0.0181814
-0.0186715
-0.0192182
-0.0197411
-0.020261
-0.0208105
-0.0213716
-0.0219655
-0.0225912
-0.0231805
-0.0236755
-0.0240976
-0.0244009
-0.0245573
-0.0245681
-0.0244018
-0.0241547
-0.023945
-0.0237553
-0.0235983
-0.0235052
-0.0234176
-0.0233811
-0.023415
-0.0234347
-0.0234815
-0.0235666
-0.023662
-0.0237547
-0.0238136
-0.0239115
-0.024024
-0.0240922
-0.024194
-0.024288
-0.0243577
-0.0244515
-0.0245259
-0.0246328
-0.0247443
-0.0247599
-0.0248425
-0.0250258
-0.0250905
-0.0250814
-0.0251748
-0.0253112
-0.0253752
-0.025404
-0.0254812
-0.0255704
-0.0256154
-0.0256682
-0.025752
-0.0258062
-0.0258487
-0.025923
-0.0259876
-0.0260281
-0.0260861
-0.0261577
-0.0262121
-0.0262621
-0.0263262
-0.0263896
-0.0264484
-0.0265075
-0.0265722
-0.026636
-0.0267
-0.0267647
-0.0268318
-0.0268976
-0.0269664
-0.0270327
-0.0271022
-0.0271688
-0.0272365
-0.0273004
-0.0273632
-0.0274187
-0.0274707
-0.0275186
-0.0275666
-0.0176553
-0.0170019
-0.0163099
-0.0156847
-0.0151369
-0.01469
-0.0144192
-0.0143758
-0.0145687
-0.0149634
-0.0154729
-0.0160006
-0.016452
-0.0168613
-0.0172945
-0.0177703
-0.0182523
-0.018734
-0.0192569
-0.0197646
-0.0202663
-0.0207984
-0.0213374
-0.0218931
-0.0224787
-0.0230402
-0.0235288
-0.0239535
-0.024265
-0.0244376
-0.0244711
-0.0243342
-0.0241036
-0.0239116
-0.0237507
-0.0235945
-0.0235018
-0.0234253
-0.0233702
-0.0233996
-0.0234378
-0.0234797
-0.0235565
-0.0236541
-0.0237518
-0.0238126
-0.0239057
-0.0240181
-0.0240804
-0.0241795
-0.0242889
-0.0243537
-0.0244331
-0.0245201
-0.0246283
-0.0247282
-0.0247565
-0.0248436
-0.0250091
-0.0250762
-0.0250824
-0.0251709
-0.0252981
-0.0253671
-0.0254005
-0.0254748
-0.0255632
-0.0256107
-0.0256638
-0.0257466
-0.0258016
-0.0258451
-0.0259192
-0.025984
-0.0260253
-0.0260834
-0.026155
-0.0262098
-0.0262603
-0.0263245
-0.026388
-0.0264471
-0.0265064
-0.0265712
-0.0266351
-0.0266992
-0.0267641
-0.0268312
-0.0268972
-0.026966
-0.0270325
-0.027102
-0.0271689
-0.0272364
-0.0273009
-0.0273633
-0.0274197
-0.0274714
-0.0275208
-0.0275704
-0.0177218
-0.0172011
-0.016708
-0.0161543
-0.0155669
-0.0150266
-0.0146339
-0.0144663
-0.0145559
-0.0149166
-0.0154377
-0.0159874
-0.0164758
-0.0169235
-0.0173898
-0.0178657
-0.0183373
-0.0187995
-0.0192895
-0.01978
-0.020263
-0.0207763
-0.0212944
-0.0218189
-0.0223652
-0.0229001
-0.0233905
-0.0238156
-0.0241284
-0.024314
-0.0243659
-0.0242574
-0.0240468
-0.0238747
-0.0237428
-0.0235898
-0.0234988
-0.0234312
-0.0233557
-0.0233831
-0.0234405
-0.0234752
-0.0235465
-0.0236468
-0.0237439
-0.0238096
-0.023903
-0.0240122
-0.0240662
-0.0241637
-0.0242896
-0.0243492
-0.0244138
-0.0245146
-0.0246236
-0.0247101
-0.0247526
-0.0248456
-0.0249911
-0.0250603
-0.0250838
-0.0251669
-0.0252837
-0.0253582
-0.0253971
-0.0254681
-0.0255552
-0.0256055
-0.025659
-0.0257408
-0.0257968
-0.0258412
-0.0259151
-0.0259802
-0.0260224
-0.0260807
-0.0261522
-0.0262075
-0.0262584
-0.0263227
-0.0263863
-0.0264456
-0.0265051
-0.02657
-0.0266341
-0.0266983
-0.0267633
-0.0268305
-0.0268967
-0.0269655
-0.0270323
-0.0271017
-0.0271691
-0.0272363
-0.0273015
-0.0273634
-0.0274207
-0.0274723
-0.0275228
-0.0275743
-0.017781
-0.0175099
-0.0171665
-0.0166237
-0.0159631
-0.0153242
-0.0148188
-0.0145372
-0.0145413
-0.0148723
-0.0154028
-0.0159774
-0.016507
-0.0170024
-0.0174998
-0.0179743
-0.0184301
-0.0188613
-0.0193156
-0.0197855
-0.0202546
-0.0207518
-0.0212467
-0.0217498
-0.02226
-0.0227647
-0.0232548
-0.0236718
-0.023986
-0.024189
-0.0242538
-0.0241758
-0.0239911
-0.023833
-0.0237305
-0.0235872
-0.0234948
-0.0234334
-0.0233392
-0.0233655
-0.0234432
-0.0234714
-0.023538
-0.0236372
-0.0237315
-0.0238088
-0.0239038
-0.0240042
-0.0240507
-0.0241488
-0.0242902
-0.0243445
-0.0243945
-0.0245094
-0.0246189
-0.0246905
-0.0247483
-0.0248485
-0.0249726
-0.0250433
-0.0250852
-0.025163
-0.0252685
-0.025349
-0.0253937
-0.0254609
-0.0255466
-0.0256001
-0.0256542
-0.0257349
-0.0257917
-0.0258371
-0.0259108
-0.0259762
-0.0260192
-0.0260777
-0.0261492
-0.026205
-0.0262563
-0.0263206
-0.0263844
-0.026444
-0.0265038
-0.0265688
-0.026633
-0.0266973
-0.0267626
-0.0268297
-0.0268962
-0.026965
-0.0270322
-0.0271013
-0.0271693
-0.0272362
-0.0273021
-0.0273637
-0.0274218
-0.0274735
-0.0275247
-0.0275783
-0.0183061
-0.0180665
-0.0177066
-0.0170689
-0.0162802
-0.0155248
-0.0149176
-0.0145572
-0.0145191
-0.0148359
-0.015375
-0.0159731
-0.0165462
-0.017089
-0.0176115
-0.0180832
-0.018523
-0.0189249
-0.0193402
-0.0197885
-0.0202482
-0.0207265
-0.0211926
-0.021673
-0.0221555
-0.0226342
-0.0231156
-0.0235233
-0.0238451
-0.0240632
-0.0241355
-0.0240905
-0.0239334
-0.0237847
-0.0237109
-0.0235793
-0.023485
-0.0234343
-0.0233244
-0.0233452
-0.0234447
-0.02347
-0.0235273
-0.0236215
-0.0237175
-0.0238107
-0.0239032
-0.0239933
-0.0240371
-0.0241343
-0.0242884
-0.02434
-0.0243747
-0.0245024
-0.0246146
-0.0246707
-0.0247421
-0.0248513
-0.0249542
-0.025025
-0.0250859
-0.0251591
-0.0252525
-0.0253387
-0.0253898
-0.0254533
-0.0255376
-0.0255944
-0.025649
-0.0257284
-0.025786
-0.0258325
-0.0259061
-0.0259718
-0.0260157
-0.0260744
-0.0261459
-0.0262021
-0.0262539
-0.0263183
-0.0263823
-0.0264422
-0.0265023
-0.0265674
-0.0266319
-0.0266963
-0.0267618
-0.026829
-0.0268957
-0.0269644
-0.027032
-0.027101
-0.0271695
-0.0272361
-0.0273028
-0.027364
-0.0274229
-0.0274747
-0.0275264
-0.0275823
-0.0193456
-0.0189668
-0.0183506
-0.0174628
-0.0164723
-0.0155781
-0.0148868
-0.0145017
-0.014473
-0.0147992
-0.015345
-0.0159657
-0.0165906
-0.0171796
-0.0177259
-0.0181923
-0.0186177
-0.0189957
-0.0193652
-0.0197886
-0.020238
-0.0206963
-0.0211309
-0.0215828
-0.0220504
-0.022514
-0.0229791
-0.0233829
-0.0237151
-0.0239326
-0.0240079
-0.0239956
-0.0238639
-0.0237333
-0.023691
-0.0235653
-0.0234682
-0.0234339
-0.0233129
-0.0233246
-0.0234437
-0.0234668
-0.0235126
-0.0236041
-0.0237055
-0.023812
-0.0238989
-0.0239823
-0.0240272
-0.0241188
-0.024283
-0.0243365
-0.024355
-0.0244924
-0.024611
-0.024652
-0.0247335
-0.0248526
-0.0249362
-0.0250058
-0.0250854
-0.0251546
-0.0252358
-0.0253276
-0.0253856
-0.0254453
-0.0255278
-0.0255879
-0.025643
-0.0257211
-0.0257799
-0.0258277
-0.025901
-0.025967
-0.0260119
-0.0260707
-0.0261423
-0.0261991
-0.0262515
-0.026316
-0.0263803
-0.0264405
-0.0265009
-0.026566
-0.0266307
-0.0266952
-0.026761
-0.0268281
-0.0268952
-0.0269637
-0.0270318
-0.0271006
-0.0271697
-0.027236
-0.0273034
-0.0273644
-0.0274239
-0.0274761
-0.027528
-0.0275863
-0.0209588
-0.0202151
-0.0190865
-0.0177734
-0.0164991
-0.0154467
-0.0147017
-0.0143432
-0.014367
-0.0147294
-0.0152932
-0.0159533
-0.0166441
-0.0172839
-0.0178508
-0.0183035
-0.0187099
-0.0190603
-0.0193824
-0.0197737
-0.0202116
-0.0206629
-0.0210718
-0.0214964
-0.021954
-0.0224009
-0.0228454
-0.023246
-0.0235852
-0.0237957
-0.0238752
-0.0238911
-0.02378
-0.0236782
-0.0236729
-0.0235495
-0.0234463
-0.0234255
-0.0233005
-0.0233092
-0.0234413
-0.0234574
-0.0234973
-0.0235916
-0.0236928
-0.0238078
-0.0238933
-0.0239732
-0.0240193
-0.0241035
-0.0242754
-0.024333
-0.0243357
-0.0244799
-0.0246067
-0.0246347
-0.0247231
-0.0248514
-0.0249184
-0.0249866
-0.0250836
-0.0251492
-0.0252186
-0.0253158
-0.0253805
-0.0254364
-0.0255172
-0.0255809
-0.0256368
-0.0257136
-0.0257734
-0.0258225
-0.0258956
-0.025962
-0.0260079
-0.026067
-0.0261387
-0.0261961
-0.026249
-0.0263136
-0.0263781
-0.0264385
-0.0264992
-0.0265644
-0.0266293
-0.0266939
-0.02676
-0.0268271
-0.0268946
-0.0269631
-0.0270316
-0.0271003
-0.02717
-0.0272361
-0.0273041
-0.027365
-0.0274249
-0.0274775
-0.0275296
-0.0275903
-0.0228364
-0.0216608
-0.019854
-0.0179752
-0.0163426
-0.0151198
-0.0143537
-0.0140571
-0.0141651
-0.0145967
-0.0152196
-0.0159552
-0.0167204
-0.0174076
-0.0179805
-0.0184112
-0.0187896
-0.0191073
-0.0193923
-0.0197456
-0.0201697
-0.0206265
-0.0210208
-0.0214271
-0.0218661
-0.0222837
-0.0227092
-0.0231006
-0.0234411
-0.0236594
-0.0237497
-0.0237844
-0.0236897
-0.0236132
-0.0236432
-0.0235316
-0.0234238
-0.0234101
-0.0232881
-0.0232983
-0.0234351
-0.0234439
-0.0234858
-0.0235812
-0.0236736
-0.0238006
-0.0238927
-0.0239642
-0.0240098
-0.0240907
-0.0242655
-0.024326
-0.0243178
-0.0244657
-0.024599
-0.024618
-0.0247121
-0.0248474
-0.0248998
-0.0249675
-0.0250805
-0.0251426
-0.0252005
-0.0253029
-0.0253749
-0.0254274
-0.0255064
-0.0255735
-0.0256302
-0.0257057
-0.0257667
-0.0258171
-0.0258902
-0.0259569
-0.0260038
-0.0260631
-0.0261347
-0.0261927
-0.0262462
-0.0263108
-0.0263754
-0.0264362
-0.0264973
-0.0265626
-0.0266278
-0.0266925
-0.026759
-0.0268261
-0.026894
-0.0269624
-0.0270315
-0.0271
-0.0271702
-0.0272362
-0.0273046
-0.0273657
-0.0274259
-0.027479
-0.0275312
-0.0275943
-0.0248086
-0.0231098
-0.0205673
-0.0180581
-0.0160217
-0.0146211
-0.0138525
-0.0136401
-0.0138636
-0.0144096
-0.0151543
-0.0159988
-0.0168298
-0.0175408
-0.0180996
-0.01851
-0.0188566
-0.0191453
-0.0194081
-0.0197234
-0.0201213
-0.0205731
-0.0209662
-0.0213662
-0.02178
-0.0221675
-0.022582
-0.0229588
-0.0232912
-0.0235263
-0.0236238
-0.0236679
-0.0236026
-0.0235451
-0.0235947
-0.023508
-0.0234012
-0.0233903
-0.023283
-0.0232897
-0.0234181
-0.0234308
-0.0234816
-0.0235695
-0.0236509
-0.0237953
-0.023894
-0.0239499
-0.023998
-0.0240813
-0.0242516
-0.0243149
-0.0243028
-0.0244489
-0.0245853
-0.0246019
-0.024702
-0.0248409
-0.0248807
-0.0249484
-0.025076
-0.0251353
-0.0251825
-0.0252898
-0.0253691
-0.0254184
-0.025495
-0.0255656
-0.0256235
-0.0256977
-0.0257598
-0.0258115
-0.0258842
-0.025951
-0.025999
-0.0260584
-0.0261302
-0.0261888
-0.026243
-0.0263076
-0.0263726
-0.0264338
-0.0264954
-0.0265608
-0.0266265
-0.0266913
-0.0267581
-0.0268252
-0.0268934
-0.0269617
-0.0270311
-0.0270996
-0.0271702
-0.0272363
-0.0273052
-0.0273666
-0.0274269
-0.0274806
-0.0275329
-0.0275981
-0.026633
-0.0244003
-0.0211505
-0.0180269
-0.0155863
-0.0140065
-0.0132387
-0.0131292
-0.0135062
-0.0142184
-0.0151331
-0.0160964
-0.0169729
-0.0176795
-0.0182139
-0.0186081
-0.018921
-0.0191847
-0.0194309
-0.0197167
-0.020076
-0.0205016
-0.0209071
-0.0213074
-0.0216956
-0.0220619
-0.0224701
-0.0228348
-0.0231496
-0.0233919
-0.0234805
-0.0235222
-0.0235168
-0.0234944
-0.0235403
-0.0234784
-0.0233748
-0.0233548
-0.0232794
-0.0232919
-0.0233973
-0.0234166
-0.0234779
-0.0235562
-0.0236332
-0.0237879
-0.0238833
-0.0239307
-0.023992
-0.0240746
-0.0242288
-0.0242986
-0.024292
-0.0244293
-0.024566
-0.0245884
-0.0246934
-0.0248326
-0.0248627
-0.0249294
-0.0250688
-0.0251282
-0.0251662
-0.025276
-0.025362
-0.0254092
-0.0254836
-0.0255573
-0.0256161
-0.0256887
-0.0257514
-0.0258044
-0.0258771
-0.0259445
-0.0259937
-0.0260535
-0.0261255
-0.0261849
-0.0262398
-0.0263046
-0.02637
-0.0264316
-0.0264936
-0.0265591
-0.0266249
-0.0266897
-0.0267568
-0.0268238
-0.0268925
-0.0269608
-0.0270308
-0.0270993
-0.0271704
-0.0272367
-0.0273058
-0.0273676
-0.0274278
-0.0274822
-0.0275346
-0.0276018
-0.0281201
-0.025414
-0.0215552
-0.0179037
-0.0151087
-0.0133647
-0.0125972
-0.0126062
-0.0131683
-0.0140803
-0.0151712
-0.0162395
-0.0171519
-0.0178493
-0.0183585
-0.0187244
-0.0189883
-0.0192151
-0.0194366
-0.0197064
-0.0200376
-0.0204384
-0.0208664
-0.0212617
-0.0216169
-0.0219569
-0.0223495
-0.0227165
-0.0230209
-0.0232644
-0.0233392
-0.0233581
-0.0234171
-0.0234534
-0.0234828
-0.023441
-0.0233519
-0.0233039
-0.023261
-0.0233058
-0.0233876
-0.0234018
-0.0234648
-0.0235374
-0.0236227
-0.0237755
-0.0238571
-0.0239109
-0.023994
-0.0240674
-0.0241947
-0.0242769
-0.0242884
-0.0244116
-0.0245439
-0.0245783
-0.0246846
-0.0248207
-0.0248475
-0.0249114
-0.0250572
-0.0251209
-0.0251527
-0.0252608
-0.0253521
-0.0253993
-0.0254714
-0.0255466
-0.0256063
-0.0256783
-0.0257425
-0.0257974
-0.0258702
-0.0259382
-0.0259886
-0.0260487
-0.0261209
-0.0261811
-0.0262366
-0.0263014
-0.0263671
-0.026429
-0.0264913
-0.0265567
-0.0266229
-0.0266878
-0.0267554
-0.0268226
-0.0268918
-0.0269603
-0.0270306
-0.0270991
-0.0271705
-0.0272371
-0.0273062
-0.0273686
-0.0274288
-0.0274838
-0.0275364
-0.0276053
-0.0291886
-0.0260912
-0.0217695
-0.0177237
-0.0146627
-0.0127904
-0.0120299
-0.0121601
-0.012912
-0.0140169
-0.0152538
-0.0164083
-0.0173647
-0.0180699
-0.0185478
-0.0188578
-0.0190488
-0.0192194
-0.0194065
-0.0196667
-0.0199989
-0.0204005
-0.0208565