/*--------------------------------*- C++ -*----------------------------------*\
  =========                 |
  \\      /  F ield         | OpenFOAM: The Open Source CFD Toolbox
   \\    /   O peration     | Website:  https://openfoam.org
    \\  /    A nd           | Version:  6
     \\/     M anipulation  |
\*---------------------------------------------------------------------------*/
FoamFile
{
    version     2.0;
    format      ascii;
    class       surfaceScalarField;
    location    "0.6";
    object      phi;
}
// * * * * * * * * * * * * * * * * * * * * * * * * * * * * * * * * * * * * * //

dimensions      [0 3 -1 0 0 0 0];

internalField   nonuniform List<scalar> 
9440
(
3.88308e-06
1.72403e-10
3.87549e-06
2.82477e-08
3.88082e-06
-3.53328e-08
3.87383e-06
2.54731e-08
3.88296e-06
-7.23147e-09
3.8728e-06
1.11376e-08
3.88172e-06
-3.18935e-08
3.87379e-06
6.00628e-09
3.88552e-06
-1.73325e-08
3.88333e-06
2.04433e-08
3.90268e-06
6.78905e-09
3.90455e-06
2.48984e-08
3.93233e-06
9.82486e-10
3.94536e-06
2.34925e-09
3.991e-06
-2.0278e-08
4.0215e-06
-1.45777e-08
4.03538e-06
-1.75954e-08
4.02827e-06
-5.27346e-08
4.03163e-06
-7.294e-08
2.25425e-08
3.90923e-06
4.18444e-06
1.59141e-09
4.18719e-06
2.54935e-08
4.18384e-06
-3.19742e-08
4.18607e-06
2.3237e-08
4.186e-06
-7.15413e-09
4.18702e-06
1.01173e-08
4.18699e-06
-3.18674e-08
4.18873e-06
4.26914e-09
4.19091e-06
-1.95143e-08
4.20007e-06
1.12841e-08
4.20829e-06
-1.43135e-09
4.22062e-06
1.25703e-08
4.22951e-06
-7.9157e-09
4.24148e-06
-9.61192e-09
4.25054e-06
-2.93439e-08
4.26857e-06
-3.26096e-08
4.30383e-06
-5.28571e-08
4.33124e-06
-8.01431e-08
4.35044e-06
-9.21406e-08
1.64006e-07
4.20898e-06
4.51853e-06
3.12352e-09
4.52041e-06
2.36099e-08
4.51737e-06
-2.89292e-08
4.51877e-06
2.18332e-08
4.51883e-06
-7.20816e-09
4.51903e-06
9.91448e-09
4.5208e-06
-3.36341e-08
4.5205e-06
4.57012e-09
4.52413e-06
-2.31515e-08
4.53188e-06
3.53367e-09
4.54273e-06
-1.22816e-08
4.55462e-06
6.85558e-10
4.56735e-06
-2.06506e-08
4.58036e-06
-2.26226e-08
4.59642e-06
-4.53963e-08
4.62369e-06
-5.98812e-08
4.66224e-06
-9.14069e-08
4.68151e-06
-9.94174e-08
4.55742e-06
3.19474e-08
1.8901e-07
4.53242e-06
4.8808e-06
3.27045e-09
4.88192e-06
2.24885e-08
4.878e-06
-2.50024e-08
4.88069e-06
1.91354e-08
4.87921e-06
-5.72438e-09
4.87998e-06
9.14808e-09
4.88082e-06
-3.44785e-08
4.88201e-06
3.3812e-09
4.88474e-06
-2.58775e-08
4.89356e-06
-5.28895e-09
4.9041e-06
-2.28234e-08
4.91816e-06
-1.33725e-08
4.93334e-06
-3.58374e-08
4.95105e-06
-4.03297e-08
4.9747e-06
-6.90402e-08
5.01061e-06
-9.57943e-08
5.04495e-06
-1.25752e-07
5.02354e-06
-7.80074e-08
4.87783e-06
1.77659e-07
1.92313e-07
4.87453e-06
5.27086e-06
3.06131e-09
5.27263e-06
2.07169e-08
5.2666e-06
-1.89798e-08
5.27197e-06
1.37723e-08
5.26794e-06
-1.69195e-09
5.27074e-06
6.34602e-09
5.26899e-06
-3.27286e-08
5.27283e-06
-4.63013e-10
5.27421e-06
-2.72549e-08
5.28519e-06
-1.62675e-08
5.29484e-06
-3.2475e-08
5.31237e-06
-3.09037e-08
5.33014e-06
-5.36051e-08
5.35515e-06
-6.53385e-08
5.38597e-06
-9.98661e-08
5.42211e-06
-1.31929e-07
5.43108e-06
-1.34727e-07
5.23633e-06
1.16748e-07
5.25014e-06
1.63851e-07
1.93822e-07
5.24863e-06
5.69182e-06
2.70493e-09
5.6937e-06
1.88318e-08
5.68683e-06
-1.21121e-08
5.69373e-06
6.87321e-09
5.68762e-06
4.425e-09
5.6926e-06
1.36222e-09
5.68872e-06
-2.88511e-08
5.69421e-06
-5.95432e-09
5.69488e-06
-2.79228e-08
5.70771e-06
-2.90956e-08
5.71745e-06
-4.22115e-08
5.739e-06
-5.24608e-08
5.7604e-06
-7.50063e-08
5.79314e-06
-9.80724e-08
5.82645e-06
-1.33174e-07
5.84812e-06
-1.53605e-07
5.67923e-06
3.41682e-08
5.63994e-06
1.56032e-07
5.64238e-06
1.61414e-07
1.77076e-07
5.65913e-06
6.14644e-06
2.13839e-09
6.14762e-06
1.7649e-08
6.14142e-06
-5.90752e-09
6.14864e-06
-3.47128e-10
6.14094e-06
1.21163e-08
6.14799e-06
-5.68184e-09
6.14259e-06
-2.34545e-08
6.14908e-06
-1.24398e-08
6.14953e-06
-2.83767e-08
6.16359e-06
-4.31559e-08
6.17465e-06
-5.32668e-08
6.20005e-06
-7.78614e-08
6.22587e-06
-1.00832e-07
6.26277e-06
-1.34972e-07
6.28668e-06
-1.57078e-07
6.19967e-06
-6.66e-08
6.09696e-06
1.36881e-07
6.07932e-06
1.73668e-07
6.06469e-06
1.7605e-07
1.30321e-07
6.11144e-06
6.63711e-06
1.59094e-09
6.63804e-06
1.67207e-08
6.63223e-06
-1.00558e-10
6.63983e-06
-7.94792e-09
6.63044e-06
2.15085e-08
6.63981e-06
-1.50509e-08
6.63263e-06
-1.6272e-08
6.64058e-06
-2.03933e-08
6.64076e-06
-2.85551e-08
6.65601e-06
-5.84132e-08
6.66878e-06
-6.6029e-08
6.69731e-06
-1.06393e-07
6.72544e-06
-1.2896e-07
6.7577e-06
-1.67229e-07
6.73377e-06
-1.33151e-07
6.60519e-06
6.19763e-08
6.56985e-06
1.7222e-07
6.55401e-06
1.89509e-07
6.52359e-06
2.0647e-07
-1.55417e-07
6.80933e-06
7.16678e-06
1.24145e-09
7.16804e-06
1.54573e-08
7.16244e-06
5.49832e-09
7.16945e-06
-1.49562e-08
7.16e-06
3.09599e-08
7.17009e-06
-2.51447e-08
7.16231e-06
-8.48421e-09
7.17102e-06
-2.91086e-08
7.17185e-06
-2.93858e-08
7.1877e-06
-7.42652e-08
7.20213e-06
-8.04535e-08
7.23158e-06
-1.35844e-07
7.25528e-06
-1.5266e-07
7.26411e-06
-1.76064e-07
7.16423e-06
-3.3265e-08
7.1044e-06
1.218e-07
7.08514e-06
1.91487e-07
7.06391e-06
2.10737e-07
7.03702e-06
2.33355e-07
-2.88401e-07
7.17001e-06
7.73926e-06
5.86752e-10
7.73898e-06
1.57338e-08
7.73722e-06
7.25589e-09
7.7385e-06
-1.62296e-08
7.73544e-06
3.40196e-08
7.73984e-06
-2.95491e-08
7.73708e-06
-5.71712e-09
7.74164e-06
-3.36696e-08
7.74767e-06
-3.54195e-08
7.76006e-06
-8.66565e-08
7.77817e-06
-9.85663e-08
7.8007e-06
-1.58371e-07
7.81066e-06
-1.62621e-07
7.76297e-06
-1.28368e-07
7.68345e-06
4.62526e-08
7.65693e-06
1.48317e-07
7.64725e-06
2.01172e-07
7.6275e-06
2.30485e-07
7.60538e-06
2.55479e-07
-4.24363e-07
7.74134e-06
8.35812e-06
-1.07741e-09
8.35354e-06
2.03156e-08
8.36037e-06
4.28426e-10
8.35026e-06
-6.11927e-09
8.36053e-06
2.37519e-08
8.35214e-06
-2.1166e-08
8.36083e-06
-1.4402e-08
8.35552e-06
-2.83576e-08
8.37182e-06
-5.17186e-08
8.37497e-06
-8.98148e-08
8.39866e-06
-1.22256e-07
8.40172e-06
-1.61424e-07
8.39253e-06
-1.53432e-07
8.31411e-06
-4.9947e-08
8.27103e-06
8.93248e-08
8.25634e-06
1.63013e-07
8.26018e-06
1.97334e-07
8.25819e-06
2.32475e-07
8.72195e-06
-2.08286e-07
-3.70519e-07
8.66811e-06
9.02581e-06
-3.24065e-09
9.01857e-06
2.75534e-08
9.03129e-06
-1.2285e-08
9.01316e-06
1.20117e-08
9.03314e-06
3.76425e-09
9.01587e-06
-3.893e-09
9.032e-06
-3.05321e-08
9.02074e-06
-1.7096e-08
9.04254e-06
-7.35221e-08
9.03861e-06
-8.5879e-08
9.06036e-06
-1.44006e-07
9.04295e-06
-1.4402e-07
9.0098e-06
-1.20277e-07
8.93441e-06
2.54442e-08
8.91453e-06
1.092e-07
8.90755e-06
1.69992e-07
8.92002e-06
1.84861e-07
9.00267e-06
1.4983e-07
9.32697e-06
-5.32585e-07
-4.34117e-07
9.39057e-06
9.74523e-06
-4.36709e-09
9.74093e-06
3.18476e-08
9.74993e-06
-2.12769e-08
9.73568e-06
2.62545e-08
9.75202e-06
-1.25703e-08
9.73975e-06
8.37704e-09
9.7498e-06
-4.05864e-08
9.74519e-06
-1.24849e-08
9.75873e-06
-8.70653e-08
9.75775e-06
-8.48985e-08
9.76146e-06
-1.47708e-07
9.7333e-06
-1.15867e-07
9.6778e-06
-6.47755e-08
9.62423e-06
7.90193e-08
9.60921e-06
1.24218e-07
9.61624e-06
1.62959e-07
9.64905e-06
1.52056e-07
1.01266e-05
-3.27748e-07
1.00751e-05
-4.81045e-07
-4.56352e-07
1.00973e-05
1.05217e-05
-3.99702e-09
1.0523e-05
3.05723e-08
1.0523e-05
-2.12795e-08
1.05199e-05
2.93162e-08
1.05243e-05
-1.692e-08
1.05248e-05
7.81187e-09
1.05218e-05
-3.75171e-08
1.05293e-05
-2.00078e-08
1.05275e-05
-8.52261e-08
1.05319e-05
-8.93882e-08
1.05108e-05
-1.2661e-07
1.04758e-05
-8.07839e-08
1.04114e-05
-4.42433e-10
1.03798e-05
1.10604e-07
1.03616e-05
1.42507e-07
1.03676e-05
1.56943e-07
1.04777e-05
4.19383e-08
1.07389e-05
-5.88915e-07
1.06689e-05
-4.11129e-07
-4.36188e-07
1.06488e-05
1.13611e-05
-2.96543e-09
1.13659e-05
2.58433e-08
1.13599e-05
-1.52701e-08
1.13651e-05
2.41175e-08
1.13605e-05
-1.2346e-08
1.1369e-05
-6.71062e-10
1.13586e-05
-2.71331e-08
1.13707e-05
-3.21224e-08
1.13584e-05
-7.29125e-08
1.13587e-05
-8.97423e-08
1.13201e-05
-8.79661e-08
1.12767e-05
-3.74155e-08
1.1218e-05
5.82413e-08
1.11977e-05
1.30914e-07
1.11815e-05
1.58773e-07
1.11744e-05
1.64038e-07
1.13762e-05
-1.59852e-07
1.13182e-05
-5.30928e-07
1.13615e-05
-4.5443e-07
-4.66231e-07
1.13915e-05
1.22683e-05
-1.88665e-09
1.22739e-05
2.02229e-08
1.22666e-05
-7.97288e-09
1.2274e-05
1.66796e-08
1.22672e-05
-5.56679e-09
1.22752e-05
-8.60925e-09
1.22659e-05
-1.78642e-08
1.22725e-05
-3.87505e-08
1.22566e-05
-5.69318e-08
1.22432e-05
-7.63675e-08
1.21968e-05
-4.15882e-08
1.21465e-05
1.29169e-08
1.20992e-05
1.05528e-07
1.20787e-05
1.5136e-07
1.20632e-05
1.74311e-07
1.20748e-05
1.52399e-07
1.22843e-05
-3.69363e-07
1.22333e-05
-4.79907e-07
1.22502e-05
-4.71286e-07
-5.13416e-07
1.22974e-05
1.32478e-05
-7.90476e-10
1.32533e-05
1.47683e-08
1.32474e-05
-2.06389e-09
1.3253e-05
1.10471e-08
1.32487e-05
-1.24385e-09
1.32506e-05
-1.05245e-08
1.32465e-05
-1.37853e-08
1.32421e-05
-3.43083e-08
1.32254e-05
-4.02422e-08
1.31947e-05
-4.5663e-08
1.3147e-05
6.07049e-09
1.30929e-05
6.70174e-08
1.30562e-05
1.4223e-07
1.30301e-05
1.77453e-07
1.30098e-05
1.94613e-07
1.31074e-05
5.48679e-08
1.3217e-05
-4.79013e-07
1.32312e-05
-4.94095e-07
1.32508e-05
-4.90899e-07
-5.59955e-07
1.32974e-05
1.43053e-05
6.44763e-10
1.4311e-05
9.02708e-09
1.43065e-05
2.48038e-09
1.43099e-05
7.61387e-09
1.43082e-05
5.18861e-10
1.43039e-05
-6.28692e-09
1.4303e-05
-1.28799e-08
1.42881e-05
-1.93548e-08
1.42681e-05
-2.02686e-08
1.42236e-05
-1.18872e-09
1.41767e-05
5.2995e-08
1.41233e-05
1.20442e-07
1.40925e-05
1.73053e-07
1.40638e-05
2.06088e-07
1.40533e-05
2.05113e-07
1.42416e-05
-1.33417e-07
1.42641e-05
-5.01478e-07
1.42967e-05
-5.26711e-07
1.43309e-05
-5.25092e-07
-6.10224e-07
1.43811e-05
1.54469e-05
2.74209e-09
1.54539e-05
2.01155e-09
1.5449e-05
7.36484e-09
1.54526e-05
3.99817e-09
1.54497e-05
3.47816e-09
1.54435e-05
-1.28937e-10
1.54391e-05
-8.40632e-09
1.54188e-05
8.60327e-10
1.53897e-05
8.906e-09
1.53405e-05
4.79501e-08
1.52928e-05
1.00746e-07
1.52452e-05
1.68031e-07
1.52136e-05
2.04617e-07
1.51886e-05
2.31139e-07
1.52399e-05
1.53804e-07
1.541e-05
-3.03503e-07
1.54142e-05
-5.05723e-07
1.54424e-05
-5.54864e-07
1.54847e-05
-5.6739e-07
-6.69849e-07
1.55443e-05
1.668e-05
5.15495e-09
1.66876e-05
-5.54211e-09
1.66825e-05
1.24474e-08
1.66869e-05
-3.43259e-10
1.66804e-05
9.98141e-09
1.66752e-05
5.07146e-09
1.66625e-05
4.22802e-09
1.66403e-05
2.31146e-08
1.66004e-05
4.87614e-08
1.65535e-05
9.48764e-08
1.65042e-05
1.50038e-07
1.6465e-05
2.07184e-07
1.64335e-05
2.36182e-07
1.64283e-05
2.36304e-07
1.65564e-05
2.56778e-08
1.66362e-05
-3.83247e-07
1.66504e-05
-5.19938e-07
1.66789e-05
-5.83388e-07
1.67264e-05
-6.14862e-07
-7.38795e-07
1.67953e-05
1.80126e-05
6.93023e-09
1.80184e-05
-1.12697e-08
1.80153e-05
1.55413e-08
1.80177e-05
-2.73565e-09
1.80094e-05
1.82681e-08
1.80035e-05
1.09819e-08
1.79842e-05
2.34821e-08
1.79582e-05
4.90879e-08
1.79133e-05
9.3721e-08
1.78689e-05
1.39289e-07
1.78222e-05
1.96657e-07
1.77907e-05
2.38731e-07
1.77696e-05
2.5725e-07
1.7812e-05
1.93879e-07
1.79474e-05
-1.09699e-07
1.79644e-05
-4.0026e-07
1.79794e-05
-5.34905e-07
1.80139e-05
-6.17892e-07
1.80686e-05
-6.6958e-07
-8.16856e-07
1.81467e-05
1.94524e-05
7.17598e-09
1.94544e-05
-1.32068e-08
1.94541e-05
1.57917e-08
1.94525e-05
-1.09619e-09
1.94451e-05
2.56306e-08
1.94362e-05
1.99249e-08
1.94134e-05
4.62397e-08
1.9382e-05
8.04993e-08
1.9339e-05
1.36692e-07
1.92962e-05
1.82143e-07
1.92577e-05
2.35127e-07
1.9235e-05
2.6144e-07
1.92395e-05
2.52738e-07
1.93288e-05
1.04555e-07
1.94039e-05
-1.84788e-07
1.94022e-05
-3.9854e-07
1.94157e-05
-5.48431e-07
1.94589e-05
-6.6109e-07
1.95239e-05
-7.34513e-07
-9.05324e-07
1.96123e-05
2.10074e-05
5.56108e-09
2.10046e-05
-1.03484e-08
2.10062e-05
1.41841e-08
2.10015e-05
3.57955e-09
2.09959e-05
3.12644e-08
2.09835e-05
3.23251e-08
2.09583e-05
7.13983e-08
2.09241e-05
1.14669e-07
2.08864e-05
1.74455e-07
2.08483e-05
2.20167e-07
2.08205e-05
2.62999e-07
2.08121e-05
2.69788e-07
2.08517e-05
2.13125e-07
2.09367e-05
1.96329e-08
2.09586e-05
-2.06725e-07
2.09526e-05
-3.92595e-07
2.0972e-05
-5.67793e-07
2.10264e-05
-7.15485e-07
2.11014e-05
-8.09515e-07
-1.0036e-06
2.11997e-05
2.26856e-05
2.8492e-09
2.26784e-05
-3.06366e-09
2.26815e-05
1.10653e-08
2.26752e-05
9.81298e-09
2.26705e-05
3.59703e-08
2.26544e-05
4.84157e-08
2.26285e-05
9.73381e-08
2.25968e-05
1.46368e-07
2.25661e-05
2.05126e-07
2.25376e-05
2.48659e-07
2.25223e-05
2.78353e-07
2.25336e-05
2.58489e-07
2.25908e-05
1.55927e-07
2.26349e-05
-2.4522e-08
2.26329e-05
-2.04727e-07
2.26293e-05
-3.8896e-07
2.26595e-05
-5.97957e-07
2.27231e-05
-7.79114e-07
2.28037e-05
-8.90111e-07
-1.10681e-06
2.29069e-05
2.44961e-05
6.91523e-10
2.44872e-05
5.82753e-09
2.44913e-05
6.97072e-09
2.44832e-05
1.79603e-08
2.44784e-05
4.07214e-08
2.4459e-05
6.78171e-08
2.44362e-05
1.20102e-07
2.44111e-05
1.71469e-07
2.43909e-05
2.25366e-07
2.43754e-05
2.64177e-07
2.43759e-05
2.77862e-07
2.44022e-05
2.32124e-07
2.44427e-05
1.15506e-07
2.44517e-05
-3.35916e-08
2.44418e-05
-1.94818e-07
2.44494e-05
-3.96566e-07
2.4492e-05
-6.40526e-07
2.45594e-05
-8.4649e-07
2.464e-05
-9.70721e-07
-1.20997e-06
2.47431e-05
2.645e-05
2.68657e-10
2.64431e-05
1.26872e-08
2.64455e-05
4.6261e-09
2.64353e-05
2.81386e-08
2.64296e-05
4.6438e-08
2.64096e-05
8.77764e-08
2.63939e-05
1.35867e-07
2.63787e-05
1.86624e-07
2.63722e-05
2.31875e-07
2.63723e-05
2.64057e-07
2.63883e-05
2.61836e-07
2.6412e-05
2.08421e-07
2.64223e-05
1.05226e-07
2.64104e-05
-2.171e-08
2.6404e-05
-1.8839e-07
2.64322e-05
-4.24789e-07
2.64895e-05
-6.97846e-07
2.65602e-05
-9.17129e-07
2.66394e-05
-1.04996e-06
-1.31044e-06
2.67399e-05
2.856e-05
1.62741e-09
2.85565e-05
1.61024e-08
2.85539e-05
7.25688e-09
2.85438e-05
3.82332e-08
2.85361e-05
5.41226e-08
2.85201e-05
1.03785e-07
2.85132e-05
1.42765e-07
2.85111e-05
1.88783e-07
2.85192e-05
2.23751e-07
2.85356e-05
2.47621e-07
2.8559e-05
2.38497e-07
2.85698e-05
1.97579e-07
2.85563e-05
1.18695e-07
2.85345e-05
1.27729e-10
2.85402e-05
-1.94054e-07
2.85894e-05
-4.74016e-07
2.86592e-05
-7.67645e-07
2.87325e-05
-9.90414e-07
2.88088e-05
-1.12628e-06
-1.40682e-06
2.89052e-05
3.08386e-05
4.74493e-09
3.08383e-05
1.63542e-08
3.08296e-05
1.59456e-08
3.08224e-05
4.54384e-08
3.08121e-05
6.44659e-08
3.08045e-05
1.11367e-07
3.08064e-05
1.4082e-07
3.08183e-05
1.7696e-07
3.08389e-05
2.03131e-07
3.08682e-05
2.18328e-07
3.08912e-05
2.15499e-07
3.08944e-05
1.94319e-07
3.08707e-05
1.42385e-07
3.08481e-05
2.27596e-08
3.08627e-05
-2.08668e-07
3.09181e-05
-5.29411e-07
3.09885e-05
-8.38001e-07
3.10617e-05
-1.06368e-06
3.11375e-05
-1.20203e-06
-1.50533e-06
3.1236e-05
3.3299e-05
9.83558e-09
3.33021e-05
1.3226e-08
3.32877e-05
3.03798e-08
3.32848e-05
4.83539e-08
3.32726e-05
7.6621e-08
3.32765e-05
1.07502e-07
3.32853e-05
1.32064e-07
3.33087e-05
1.5355e-07
3.3337e-05
1.7476e-07
3.33729e-05
1.82486e-07
3.33961e-05
1.92244e-07
3.34043e-05
1.86119e-07
3.33877e-05
1.59013e-07
3.33707e-05
3.97304e-08
3.33775e-05
-2.15426e-07
3.34165e-05
-5.68445e-07
3.34762e-05
-8.97653e-07
3.35515e-05
-1.13901e-06
3.36362e-05
-1.28674e-06
-1.62145e-06
3.37523e-05
3.59569e-05
1.61034e-08
3.59621e-05
8.00638e-09
3.59436e-05
4.88877e-08
3.59458e-05
4.61651e-08
3.59344e-05
8.79852e-08
3.59488e-05
9.30595e-08
3.59611e-05
1.19816e-07
3.59904e-05
1.24215e-07
3.60211e-05
1.44073e-07
3.60591e-05
1.44453e-07
3.60904e-05
1.61011e-07
3.6116e-05
1.60462e-07
3.61261e-05
1.48923e-07
3.61215e-05
4.43149e-08
3.61057e-05
-1.99567e-07
3.61081e-05
-5.70907e-07
3.61485e-05
-9.37973e-07
3.62289e-05
-1.21949e-06
3.63325e-05
-1.39034e-06
-1.76898e-06
3.64801e-05
3.88285e-05
2.20818e-08
3.88318e-05
4.70794e-09
3.88156e-05
6.50474e-08
3.88211e-05
4.07269e-08
3.88143e-05
9.46951e-08
3.88328e-05
7.4618e-08
3.88462e-05
1.06372e-07
3.88748e-05
9.56134e-08
3.89064e-05
1.12473e-07
3.89477e-05
1.03173e-07
3.89948e-05
1.1393e-07
3.90472e-05
1.08086e-07
3.90971e-05
9.90205e-08
3.91176e-05
2.37479e-08
3.9082e-05
-1.63959e-07
3.90322e-05
-5.21077e-07
3.90369e-05
-9.42648e-07
3.9114e-05
-1.29665e-06
3.92382e-05
-1.51446e-06
-1.95227e-06
3.94214e-05
4.19306e-05
2.64827e-08
4.19293e-05
6.06826e-09
4.19247e-05
6.95923e-08
4.19247e-05
4.07641e-08
4.19283e-05
9.1041e-08
4.1941e-05
6.19402e-08
4.19574e-05
8.99799e-08
4.19824e-05
7.06316e-08
4.20193e-05
7.55715e-08
4.20664e-05
5.60765e-08
4.21297e-05
5.06232e-08
4.22051e-05
3.26448e-08
4.22929e-05
1.12234e-08
4.23554e-05
-3.87342e-08
4.23395e-05
-1.48057e-07
4.22322e-05
-4.13747e-07
4.21682e-05
-8.78611e-07
4.22211e-05
-1.34959e-06
4.23612e-05
-1.65461e-06
-2.16856e-06
4.25775e-05
4.52833e-05
2.63186e-08
4.5276e-05
1.3428e-08
4.52862e-05
5.93743e-08
4.52735e-05
5.34438e-08
4.52917e-05
7.28252e-08
4.52931e-05
6.05245e-08
4.53178e-05
6.53605e-08
4.53402e-05
4.81667e-08
4.53852e-05
3.05793e-08
4.54348e-05
6.50332e-09
4.55074e-05
-2.19915e-08
4.5591e-05
-5.09896e-08
4.56956e-05
-9.33864e-08
4.57969e-05
-1.4004e-07
4.58659e-05
-2.16979e-07
4.5809e-05
-3.56924e-07
4.56458e-05
-7.15407e-07
4.55981e-05
-1.30184e-06
4.57224e-05
-1.77889e-06
-2.3962e-06
4.595e-05
4.89078e-05
1.71276e-08
4.88903e-05
3.08892e-08
4.89106e-05
3.91446e-08
4.88936e-05
7.03583e-08
4.89215e-05
4.50013e-08
4.89167e-05
6.53364e-08
4.895e-05
3.20623e-08
4.8969e-05
2.90991e-08
4.90163e-05
-1.66574e-08
4.90606e-05
-3.78218e-08
4.91348e-05
-9.62013e-08
4.92211e-05
-1.37277e-07
4.93373e-05
-2.09561e-07
4.94669e-05
-2.69639e-07
4.96211e-05
-3.71248e-07
4.97566e-05
-4.92432e-07
4.9755e-05
-7.13747e-07
4.95902e-05
-1.13705e-06
4.95441e-05
-1.73284e-06
-2.56483e-06
4.97128e-05
5.28192e-05
5.88705e-10
5.27939e-05
5.62512e-08
5.28174e-05
1.55877e-08
5.28128e-05
7.50071e-08
5.28371e-05
2.06784e-08
5.28393e-05
6.31288e-08
5.28699e-05
1.50672e-09
5.28847e-05
1.43111e-08
5.29224e-05
-5.4349e-08
5.29593e-05
-7.47909e-08
5.30276e-05
-1.64433e-07
5.31211e-05
-2.30832e-07
5.32623e-05
-3.50746e-07
5.34414e-05
-4.48714e-07
5.36513e-05
-5.81216e-07
5.3886e-05
-7.27046e-07
5.41143e-05
-9.4204e-07
5.4189e-05
-1.21178e-06
5.40741e-05
-1.61799e-06
-2.61556e-06
5.41249e-05
5.70306e-05
-1.1533e-08
5.70178e-05
6.90851e-08
5.7038e-05
-4.60775e-09
5.70494e-05
6.35912e-08
5.70631e-05
6.98521e-09
5.70797e-05
4.65359e-08
5.70952e-05
-1.3991e-08
5.71118e-05
-2.31092e-09
5.71341e-05
-7.66143e-08
5.71696e-05
-1.10269e-07
5.72226e-05
-2.17436e-07
5.73079e-05
-3.16134e-07
5.7445e-05
-4.87856e-07
5.76648e-05
-6.685e-07
5.79583e-05
-8.74734e-07
5.82578e-05
-1.02655e-06
5.84949e-05
-1.17914e-06
5.86438e-05
-1.36065e-06
5.86203e-05
-1.59455e-06
-2.56429e-06
5.85691e-05
6.15674e-05
-7.99144e-09
6.15861e-05
5.03395e-08
6.1596e-05
-1.45205e-08
6.16199e-05
3.97583e-08
6.16276e-05
-7.01911e-10
6.16553e-05
1.88471e-08
6.16579e-05
-1.66851e-08
6.16831e-05
-2.7463e-08
6.16942e-05
-8.76986e-08
6.17288e-05
-1.4491e-07
6.17579e-05
-2.46505e-07
6.18028e-05
-3.61044e-07
6.18465e-05
-5.31542e-07
6.19359e-05
-7.57895e-07
6.21385e-05
-1.07732e-06
6.25305e-05
-1.41858e-06
6.30221e-05
-1.67077e-06
6.34189e-05
-1.75743e-06
6.36031e-05
-1.77875e-06
-2.483e-06
6.35218e-05
6.64671e-05
1.17129e-08
6.65212e-05
-3.77315e-09
6.65092e-05
-2.50612e-09
6.65502e-05
-1.21869e-09
6.65529e-05
-3.42345e-09
6.65918e-05
-2.00387e-08
6.65923e-05
-1.71619e-08
6.66233e-05
-5.84984e-08
6.66209e-05
-8.53151e-08
6.66338e-05
-1.5777e-07
6.66173e-05
-2.30047e-07
6.66126e-05
-3.56323e-07
6.65853e-05
-5.04268e-07
6.65401e-05
-7.12731e-07
6.64412e-05
-9.78389e-07
6.63935e-05
-1.37089e-06
6.65669e-05
-1.84416e-06
6.70567e-05
-2.24717e-06
6.77163e-05
-2.43843e-06
-3.04936e-06
6.82827e-05
7.17746e-05
3.23029e-08
7.18301e-05
-5.92855e-08
7.18201e-05
7.49096e-09
7.1868e-05
-4.918e-08
7.18794e-05
-1.47473e-08
7.1919e-05
-5.96358e-08
7.19289e-05
-2.7087e-08
7.1945e-05
-7.4593e-08
7.19244e-05
-6.47092e-08
7.18876e-05
-1.20976e-07
7.18093e-05
-1.51794e-07
7.17216e-05
-2.68554e-07
7.16404e-05
-4.23095e-07
7.16281e-05
-7.00462e-07
7.16785e-05
-1.02876e-06
7.17269e-05
-1.41933e-06
7.17148e-05
-1.83207e-06
7.18597e-05
-2.39205e-06
7.23872e-05
-2.96586e-06
-3.95186e-06
7.32897e-05
7.75133e-05
7.75558e-05
7.75677e-05
7.76066e-05
7.76359e-05
7.76664e-05
7.76854e-05
7.76799e-05
7.76448e-05
7.7569e-05
7.74498e-05
7.72714e-05
7.7039e-05
7.68402e-05
7.68982e-05
7.7297e-05
7.77444e-05
7.78031e-05
7.72468e-05
7.58568e-05
3.81096e-06
9.82653e-08
3.72371e-06
8.72572e-08
3.63071e-06
9.30006e-08
3.53524e-06
9.54701e-08
3.43746e-06
9.77738e-08
3.33687e-06
1.00595e-07
3.23408e-06
1.02791e-07
3.13012e-06
1.03952e-07
3.02464e-06
1.05481e-07
2.91756e-06
1.0708e-07
2.80915e-06
1.08418e-07
2.69902e-06
1.10125e-07
2.58668e-06
1.12342e-07
2.47245e-06
1.14226e-07
2.35677e-06
1.15679e-07
2.23921e-06
1.17563e-07
2.11973e-06
1.19482e-07
1.9986e-06
1.2113e-07
1.87728e-06
1.21317e-07
1.75508e-06
1.22201e-07
1.63324e-06
1.21838e-07
1.51272e-06
1.20517e-07
1.39371e-06
1.19015e-07
1.28149e-06
1.12215e-07
1.17941e-06
1.02082e-07
1.09104e-06
8.83757e-08
1.02024e-06
7.07974e-08
9.66278e-07
5.39612e-08
9.26488e-07
3.97898e-08
8.9718e-07
2.93081e-08
8.75862e-07
2.13184e-08
8.6055e-07
1.53119e-08
8.48869e-07
1.16804e-08
8.40101e-07
8.76806e-09
8.32423e-07
7.67891e-09
8.23917e-07
8.50583e-09
8.15554e-07
8.3623e-09
8.06556e-07
8.99851e-09
7.96363e-07
1.01933e-08
7.87056e-07
9.30706e-09
7.77572e-07
9.48321e-09
7.66741e-07
1.08315e-08
7.55903e-07
1.08375e-08
7.45339e-07
1.05646e-08
7.35286e-07
1.0053e-08
7.25192e-07
1.00941e-08
7.14462e-07
1.07301e-08
7.0411e-07
1.03513e-08
6.94212e-07
9.8988e-09
6.85114e-07
9.09716e-09
6.76625e-07
8.48951e-09
6.67441e-07
9.18359e-09
6.59168e-07
8.27283e-09
6.51966e-07
7.2021e-09
6.44028e-07
7.93839e-09
6.37319e-07
6.70895e-09
6.31966e-07
5.35272e-09
6.24948e-07
7.01834e-09
6.18118e-07
6.82981e-09
6.13892e-07
4.22583e-09
6.09843e-07
4.04935e-09
6.04575e-07
5.26772e-09
6.00003e-07
4.57194e-09
5.9685e-07
3.15338e-09
5.93873e-07
2.97645e-09
5.90618e-07
3.25514e-09
5.87963e-07
2.65499e-09
5.85901e-07
2.06244e-09
5.83782e-07
2.11876e-09
5.81845e-07
1.93747e-09
5.80494e-07
1.35082e-09
5.79188e-07
1.30544e-09
5.77879e-07
1.30933e-09
5.76961e-07
9.18151e-10
5.76267e-07
6.94174e-10
5.75499e-07
7.67476e-10
5.74864e-07
6.35626e-10
5.74484e-07
3.80069e-10
5.74134e-07
3.4934e-10
5.73772e-07
3.62675e-10
5.7352e-07
2.51141e-10
5.73352e-07
1.68362e-10
5.73228e-07
1.2424e-10
5.73109e-07
1.18349e-10
5.73058e-07
5.19209e-11
5.73026e-07
3.17733e-11
5.73017e-07
9.04911e-12
5.73017e-07
-7.77592e-13
5.73025e-07
-7.7226e-12
5.73033e-07
-7.60317e-12
5.73027e-07
5.9704e-12
5.73006e-07
2.09768e-11
5.72932e-07
7.34783e-11
5.72838e-07
9.47266e-11
5.72618e-07
2.19648e-10
5.72336e-07
2.82287e-10
5.71839e-07
4.96749e-10
5.71216e-07
6.22544e-10
5.6994e-07
1.27661e-09
3.96316e-09
4.20754e-06
9.97026e-08
4.21791e-06
7.68859e-08
4.21993e-06
9.09897e-08
4.21599e-06
9.94086e-08
4.20734e-06
1.06425e-07
4.1937e-06
1.14228e-07
4.17686e-06
1.19634e-07
4.15739e-06
1.23419e-07
4.13611e-06
1.26761e-07
4.11229e-06
1.30908e-07
4.08629e-06
1.34411e-07
4.0577e-06
1.38717e-07
4.02508e-06
1.44967e-07
3.98943e-06
1.49869e-07
3.94944e-06
1.55668e-07
3.90596e-06
1.61048e-07
3.85733e-06
1.68109e-07
3.80443e-06
1.74037e-07
3.74799e-06
1.77754e-07
3.68631e-06
1.83881e-07
3.62167e-06
1.86477e-07
3.55301e-06
1.8918e-07
3.48068e-06
1.91345e-07
3.40656e-06
1.86331e-07
3.33256e-06
1.76083e-07
3.26067e-06
1.60265e-07
3.19209e-06
1.39373e-07
3.12968e-06
1.16375e-07
3.07236e-06
9.71155e-08
3.01877e-06
8.28925e-08
2.96998e-06
7.01106e-08
2.92301e-06
6.22758e-08
2.8784e-06
5.62972e-08
2.83755e-06
4.96171e-08
2.79591e-06
4.93175e-08
2.75533e-06
4.90912e-08
2.71689e-06
4.67935e-08
2.67643e-06
4.94642e-08
2.63676e-06
4.986e-08
2.5992e-06
4.68689e-08
2.56128e-06
4.74005e-08
2.52297e-06
4.91478e-08
2.48506e-06
4.87408e-08
2.44881e-06
4.68165e-08
2.41295e-06
4.59164e-08
2.37739e-06
4.56483e-08
2.34316e-06
4.49669e-08
2.30804e-06
4.54653e-08
2.27438e-06
4.35629e-08
2.24421e-06
3.92691e-08
2.21291e-06
3.97838e-08
2.18171e-06
4.03822e-08
2.15414e-06
3.58433e-08
2.12652e-06
3.48223e-08
2.09919e-06
3.52714e-08
2.07582e-06
3.0083e-08
2.05279e-06
2.83826e-08
2.02828e-06
3.15287e-08
2.00708e-06
2.80236e-08
1.98924e-06
2.20715e-08
1.97084e-06
2.24471e-08
1.95259e-06
2.35121e-08
1.93684e-06
2.03289e-08
1.92291e-06
1.70844e-08
1.90964e-06
1.624e-08
1.89735e-06
1.55436e-08
1.88653e-06
1.34774e-08
1.8768e-06
1.17973e-08
1.86782e-06
1.10917e-08
1.85985e-06
9.91211e-09
1.85293e-06
8.2678e-09
1.84666e-06
7.5813e-09
1.84106e-06
6.90519e-09
1.8363e-06
5.67521e-09
1.83215e-06
4.84521e-09
1.82845e-06
4.46783e-09
1.82533e-06
3.75782e-09
1.82277e-06
2.94019e-09
1.82052e-06
2.59955e-09
1.81858e-06
2.29935e-09
1.81698e-06
1.85179e-09
1.81571e-06
1.44516e-09
1.81463e-06
1.19588e-09
1.81381e-06
9.41818e-10
1.81315e-06
7.07196e-10
1.81273e-06
4.52266e-10
1.81237e-06
3.73882e-10
1.81223e-06
1.37857e-10
1.81204e-06
1.79891e-10
1.8121e-06
-6.13545e-11
1.81197e-06
1.35026e-10
1.81211e-06
-1.19406e-10
1.81191e-06
2.70933e-10
1.81199e-06
1.15048e-11
1.81161e-06
6.00772e-10
1.81136e-06
5.31908e-10
1.81074e-06
1.1233e-09
1.80949e-06
1.87382e-09
1.80861e-06
2.14966e-09
9.37299e-09
4.54216e-06
8.99657e-08
4.55602e-06
6.3018e-08
4.56599e-06
8.10228e-08
4.57094e-06
9.44621e-08
4.57235e-06
1.05015e-07
4.57084e-06
1.15739e-07
4.56819e-06
1.22283e-07
4.56513e-06
1.26477e-07
4.56264e-06
1.29246e-07
4.56046e-06
1.33096e-07
4.55823e-06
1.3664e-07
4.55612e-06
1.40822e-07
4.5525e-06
1.4859e-07
4.54833e-06
1.54037e-07
4.5423e-06
1.617e-07
4.53505e-06
1.683e-07
4.52554e-06
1.77617e-07
4.514e-06
1.85575e-07
4.50122e-06
1.90534e-07
4.48545e-06
1.99656e-07
4.46864e-06
2.0328e-07
4.44969e-06
2.08128e-07
4.42855e-06
2.12493e-07
4.40568e-06
2.092e-07
4.38079e-06
2.0097e-07
4.35493e-06
1.86121e-07
4.32766e-06
1.66651e-07
4.30045e-06
1.43579e-07
4.27422e-06
1.23346e-07
4.24823e-06
1.08887e-07
4.22329e-06
9.50491e-08
4.19863e-06
8.69304e-08
4.17353e-06
8.14044e-08
4.1498e-06
7.3348e-08
4.12501e-06
7.41004e-08
4.09867e-06
7.54344e-08
4.07373e-06
7.17353e-08
4.04671e-06
7.64828e-08
4.01858e-06
7.7988e-08
3.99218e-06
7.32708e-08
3.96419e-06
7.53895e-08
3.93527e-06
7.80649e-08
3.90626e-06
7.77519e-08
3.87684e-06
7.62361e-08
3.8476e-06
7.51645e-08
3.81716e-06
7.60816e-08
3.78657e-06
7.55547e-08
3.75538e-06
7.66609e-08
3.72337e-06
7.55734e-08
3.69359e-06
6.90455e-08
3.66288e-06
7.0495e-08
3.63027e-06
7.29904e-08
3.60044e-06
6.56766e-08
3.57047e-06
6.47874e-08
3.5389e-06
6.68458e-08
3.51046e-06
5.85248e-08
3.48261e-06
5.62334e-08
3.45211e-06
6.20218e-08
3.42375e-06
5.63897e-08
3.39884e-06
4.69771e-08
3.37314e-06
4.81461e-08
3.34679e-06
4.98691e-08
3.32278e-06
4.43304e-08
3.30056e-06
3.9305e-08
3.27856e-06
3.82445e-08
3.25773e-06
3.6378e-08
3.23874e-06
3.24605e-08
3.22066e-06
2.98762e-08
3.20335e-06
2.84068e-08
3.18753e-06
2.57332e-08
3.17303e-06
2.27687e-08
3.15947e-06
2.11412e-08
3.14711e-06
1.926e-08
3.13603e-06
1.67591e-08
3.12582e-06
1.50526e-08
3.11652e-06
1.37699e-08
3.10827e-06
1.20092e-08
3.101e-06
1.02065e-08
3.09444e-06
9.16017e-09
3.08867e-06
8.06545e-09
3.08361e-06
6.92049e-09
3.07927e-06
5.78509e-09
3.07543e-06
5.03554e-09
3.07225e-06
4.11615e-09
3.0695e-06
3.46166e-09
3.06736e-06
2.58494e-09
3.06549e-06
2.24343e-09
3.06419e-06
1.43768e-09
3.06301e-06
1.35981e-09
3.06236e-06
5.88733e-10
3.0617e-06
7.99774e-10
3.06148e-06
9.70406e-11
3.06116e-06
5.92671e-10
3.06107e-06
1.03264e-10
3.06093e-06
7.38449e-10
3.06053e-06
9.38218e-10
3.06049e-06
1.15768e-09
3.05899e-06
3.37316e-09
3.05883e-06
2.30783e-09
1.3471e-08
4.90569e-06
5.88066e-08
4.91898e-06
4.97244e-08
4.93069e-06
6.93169e-08
4.93714e-06
8.80086e-08
4.939e-06
1.0316e-07
4.93816e-06
1.16581e-07
4.93617e-06
1.24266e-07
4.93429e-06
1.28362e-07
4.93341e-06
1.30121e-07
4.93392e-06
1.3259e-07
4.93501e-06
1.35553e-07
4.93691e-06
1.38914e-07
4.93855e-06
1.46956e-07
4.94024e-06
1.5235e-07
4.94143e-06
1.6051e-07
4.94211e-06
1.6762e-07
4.9423e-06
1.77423e-07
4.94186e-06
1.86012e-07
4.94148e-06
1.90915e-07
4.94025e-06
2.00881e-07
4.93936e-06
2.04173e-07
4.93832e-06
2.09169e-07
4.9368e-06
2.14018e-07
4.93501e-06
2.10989e-07
4.93167e-06
2.04306e-07
4.92728e-06
1.90507e-07
4.92113e-06
1.72803e-07
4.91319e-06
1.51521e-07
4.90502e-06
1.31515e-07
4.89655e-06
1.17359e-07
4.88798e-06
1.03621e-07
4.87964e-06
9.52703e-08
4.87072e-06
9.03189e-08
4.8622e-06
8.18729e-08
4.85346e-06
8.28359e-08
4.84313e-06
8.57698e-08
4.83344e-06
8.14251e-08
4.82299e-06
8.69338e-08
4.81127e-06
8.97012e-08
4.80073e-06
8.38128e-08
4.78909e-06
8.70276e-08
4.77658e-06
9.0582e-08
4.76429e-06
9.00346e-08
4.7512e-06
8.93284e-08
4.7382e-06
8.81665e-08
4.72428e-06
9.0005e-08
4.70951e-06
9.03196e-08
4.69458e-06
9.15871e-08
4.67836e-06
9.17953e-08
4.66278e-06
8.46288e-08
4.64689e-06
8.63855e-08
4.62878e-06
9.11008e-08
4.61183e-06
8.26203e-08
4.59513e-06
8.14897e-08
4.57627e-06
8.57088e-08
4.5586e-06
7.61935e-08
4.54159e-06
7.32449e-08
4.52221e-06
8.13994e-08
4.50321e-06
7.53904e-08
4.48621e-06
6.39821e-08
4.46833e-06
6.60206e-08
4.44931e-06
6.889e-08
4.43139e-06
6.22559e-08
4.41439e-06
5.63006e-08
4.39705e-06
5.55812e-08
4.38005e-06
5.33786e-08
4.3641e-06
4.84082e-08
4.34844e-06
4.55449e-08
4.33273e-06
4.41102e-08
4.31776e-06
4.07074e-08
4.30363e-06
3.68964e-08
4.29013e-06
3.4644e-08
4.27742e-06
3.1964e-08
4.26551e-06
2.86725e-08
4.254e-06
2.65657e-08
4.24297e-06
2.48018e-08
4.23269e-06
2.22859e-08
4.22326e-06
1.96323e-08
4.21454e-06
1.78859e-08
4.20661e-06
1.59883e-08
4.19936e-06
1.41714e-08
4.1928e-06
1.23484e-08
4.18672e-06
1.11114e-08
4.18129e-06
9.54641e-09
4.17636e-06
8.39217e-09
4.17209e-06
6.85424e-09
4.16831e-06
6.03188e-09
4.16515e-06
4.59325e-09
4.16242e-06
4.08555e-09
4.16024e-06
2.77042e-09
4.15845e-06
2.59065e-09
4.15703e-06
1.51803e-09
4.15603e-06
1.59265e-09
4.15507e-06
1.06908e-09
4.15469e-06
1.10973e-09
4.15379e-06
1.83724e-09
4.15394e-06
1.01688e-09
4.15248e-06
4.82898e-09
4.15271e-06
2.08015e-09
1.57726e-08
5.29984e-06
7.59831e-09
5.31263e-06
3.69298e-08
5.32523e-06
5.67201e-08
5.33245e-06
8.0787e-08
5.33431e-06
1.01298e-07
5.33328e-06
1.17613e-07
5.33106e-06
1.26484e-07
5.32894e-06
1.30485e-07
5.32785e-06
1.31202e-07
5.3286e-06
1.31845e-07
5.33005e-06
1.34104e-07
5.33233e-06
1.36628e-07
5.33476e-06
1.44532e-07
5.33727e-06
1.49843e-07
5.33949e-06
1.5829e-07
5.34111e-06
1.65998e-07
5.34289e-06
1.75637e-07
5.3443e-06
1.84604e-07
5.34598e-06
1.89239e-07
5.34774e-06
1.99122e-07
5.35008e-06
2.01825e-07
5.35296e-06
2.06293e-07
5.356e-06
2.10976e-07
5.35941e-06
2.07584e-07
5.36164e-06
2.02074e-07
5.3631e-06
1.89045e-07
5.36325e-06
1.72654e-07