/*--------------------------------*- C++ -*----------------------------------*\
  =========                 |
  \\      /  F ield         | OpenFOAM: The Open Source CFD Toolbox
   \\    /   O peration     | Website:  https://openfoam.org
    \\  /    A nd           | Version:  6
     \\/     M anipulation  |
\*---------------------------------------------------------------------------*/
FoamFile
{
    version     2.0;
    format      ascii;
    class       volVectorField;
    location    "0.6";
    object      U;
}
// * * * * * * * * * * * * * * * * * * * * * * * * * * * * * * * * * * * * * //

dimensions      [0 1 -1 0 0 0 0];

internalField   nonuniform List<vector> 
4800
(
(0.959841 7.53045e-05 0)
(1.03985 -6.86983e-06 0)
(0.963699 -0.000161203 0)
(1.03565 9.95371e-05 0)
(0.967119 0.0001955 0)
(1.03252 -0.000221749 0)
(0.970517 -0.00029736 0)
(1.02977 -3.78342e-05 0)
(0.974944 -2.36644e-05 0)
(1.02832 0.000127257 0)
(0.980624 0.000122357 0)
(1.02885 4.00209e-05 0)
(0.987577 -3.02321e-05 0)
(1.02986 -0.000164034 0)
(0.9938 -0.000190541 0)
(1.02997 -0.000237529 0)
(0.998295 -0.000165327 0)
(1.02902 -0.000148332 0)
(1.00073 -5.40712e-05 0)
(1.02729 -7.03158e-06 0)
(0.982485 4.77587e-05 0)
(1.01515 0.000197302 0)
(0.986948 -0.000370383 0)
(1.0115 0.000282797 0)
(0.990186 -4.8511e-05 0)
(1.00883 4.53e-05 0)
(0.993555 -0.000537693 0)
(1.00727 5.70306e-05 0)
(0.996633 -0.000326162 0)
(1.00714 0.000250578 0)
(1.00106 -8.41226e-05 0)
(1.00938 0.000198141 0)
(1.00655 -0.000292006 0)
(1.01216 -0.000239832 0)
(1.01109 -0.000594546 0)
(1.01422 -0.000370494 0)
(1.01377 -0.000382846 0)
(1.01492 -2.89101e-05 0)
(1.01467 4.9395e-06 0)
(1.0148 0.000376717 0)
(0.995925 -4.25703e-05 0)
(1.00285 0.000606348 0)
(0.99764 -0.000674853 0)
(1.00168 0.000614847 0)
(0.998365 -0.000347462 0)
(1.00095 0.000478127 0)
(0.999787 -0.000873944 0)
(1.00148 0.000238268 0)
(1.00095 -0.000746504 0)
(1.00284 0.000401207 0)
(1.00377 -0.000350871 0)
(1.00642 0.000408176 0)
(1.00811 -0.000643759 0)
(1.01022 -0.000358632 0)
(1.0119 -0.00119793 0)
(1.01303 -0.000572582 0)
(1.01408 -0.000763595 0)
(1.01429 0.000106764 0)
(1.01473 1.46794e-05 0)
(1.01447 0.000886993 0)
(0.999459 -7.60925e-05 0)
(1.00029 0.00068453 0)
(0.999856 -0.000632642 0)
(1.00005 0.000570393 0)
(0.999848 -0.000264513 0)
(0.999985 0.000501242 0)
(1.00037 -0.00074027 0)
(1.0009 8.02758e-05 0)
(1.00154 -0.00077286 0)
(1.00255 0.00014821 0)
(1.00399 -0.000318832 0)
(1.00608 0.000161126 0)
(1.00808 -0.000707101 0)
(1.00998 -0.000812409 0)
(1.01185 -0.00147334 0)
(1.01302 -0.000985999 0)
(1.0141 -0.000858969 0)
(1.01441 4.29947e-05 0)
(1.01478 0.000318465 0)
(1.01474 0.00129848 0)
(0.999993 1.79743e-05 0)
(1.00001 0.000230078 0)
(1.00013 -0.000219346 0)
(0.999847 5.17929e-05 0)
(1.00013 7.64058e-05 0)
(1.00006 0.000158654 0)
(1.00025 -0.00032039 0)
(1.00076 -0.000302387 0)
(1.00178 -0.000512097 0)
(1.00264 -0.000393962 0)
(1.00416 -0.000263362 0)
(1.00603 -0.000400689 0)
(1.00801 -0.000748045 0)
(1.0099 -0.0013457 0)
(1.01179 -0.00146659 0)
(1.01312 -0.00133952 0)
(1.01419 -0.000751304 0)
(1.01464 -4.31833e-05 0)
(1.01498 0.000681589 0)
(1.01502 0.0013783 0)
(1.00004 0.000178811 0)
(1 -0.000262796 0)
(1.00015 0.000110449 0)
(0.999789 -0.000388327 0)
(1.00022 0.000237331 0)
(1.00016 -0.000151879 0)
(1.00016 -0.000157352 0)
(1.00063 -0.000406412 0)
(1.00185 -0.000406102 0)
(1.00269 -0.000836758 0)
(1.00426 -0.000486824 0)
(1.00601 -0.00102057 0)
(1.00795 -0.00109088 0)
(1.00984 -0.00171912 0)
(1.01176 -0.00149201 0)
(1.01319 -0.00146973 0)
(1.01431 -0.000653909 0)
(1.01482 4.93733e-06 0)
(1.01515 0.000808734 0)
(1.01516 0.00110042 0)
(1.00004 0.000148781 0)
(1.00002 -6.53239e-05 0)
(1.00015 1.85852e-05 0)
(0.999776 -0.000154007 0)
(1.00024 -4.65703e-06 0)
(1.00019 -6.82946e-05 0)
(1.00015 -0.000331258 0)
(1.00056 -0.0001209 0)
(1.00182 -0.00054588 0)
(1.00269 -0.000929112 0)
(1.00427 -0.000992268 0)
(1.00599 -0.00156111 0)
(1.00791 -0.00162102 0)
(1.00983 -0.0019513 0)
(1.01177 -0.00168351 0)
(1.01329 -0.00145516 0)
(1.01449 -0.000606291 0)
(1.015 8.32879e-05 0)
(1.01527 0.000775535 0)
(1.01519 0.000873648 0)
(1.00003 -0.000143279 0)
(1.00001 0.000650335 0)
(1.00014 -0.000230201 0)
(0.999767 0.00038443 0)
(1.00022 -0.000192239 0)
(1.00019 0.000163058 0)
(1.00014 -0.000519646 0)
(1.00053 0.000145468 0)
(1.00175 -0.000570194 0)
(1.00264 -0.000903793 0)
(1.0042 -0.00147031 0)
(1.00595 -0.0019747 0)
(1.00788 -0.00206564 0)
(1.00984 -0.00223687 0)
(1.01183 -0.00196217 0)
(1.01343 -0.0015477 0)
(1.01469 -0.000756628 0)
(1.0152 -4.07065e-05 0)
(1.01538 0.000661638 0)
(1.01518 0.000811054 0)
(1.00004 -0.000190575 0)
(0.999982 0.000660006 0)
(1.00011 -1.3008e-05 0)
(0.999755 0.000166246 0)
(1.00018 0.000258888 0)
(1.00015 -0.000264201 0)
(1.00013 -0.000273093 0)
(1.00052 -0.000122227 0)
(1.00166 -0.00032059 0)
(1.00255 -0.00123145 0)
(1.00409 -0.00159692 0)
(1.00589 -0.00241085 0)
(1.00784 -0.00235969 0)
(1.00985 -0.0027332 0)
(1.01192 -0.00225441 0)
(1.0136 -0.00205268 0)
(1.0149 -0.0011706 0)
(1.01543 -0.000570157 0)
(1.01555 0.000528932 0)
(1.01527 0.000806212 0)
(1.00005 0.000158735 0)
(0.999972 -0.000245044 0)
(1.00009 0.000611934 0)
(0.999757 -0.000826256 0)
(1.00014 0.00109826 0)
(1.0001 -0.00120242 0)
(1.00014 0.000349891 0)
(1.0005 -0.000888963 0)
(1.00156 -4.26325e-05 0)
(1.00243 -0.00179877 0)
(1.00397 -0.00138907 0)
(1.0058 -0.00287768 0)
(1.00779 -0.00249824 0)
(1.00987 -0.00330571 0)
(1.012 -0.00259951 0)
(1.01377 -0.00294676 0)
(1.01514 -0.00179267 0)
(1.01576 -0.00142366 0)
(1.01585 0.000306425 0)
(1.01537 0.000792043 0)
(1.00004 0.000248601 0)
(1.00001 -0.000535438 0)
(1.00006 0.000642988 0)
(0.999798 -0.00104236 0)
(1.00013 0.0012282 0)
(1.00006 -0.00129608 0)
(1.00016 0.000425635 0)
(1.00046 -0.00115304 0)
(1.00151 -0.000172399 0)
(1.00232 -0.00187933 0)
(1.00388 -0.0013861 0)
(1.00567 -0.00303397 0)
(1.00774 -0.00260895 0)
(1.00985 -0.00365344 0)
(1.01205 -0.00316885 0)
(1.0139 -0.00378995 0)
(1.01541 -0.00268956 0)
(1.01619 -0.0023026 0)
(1.01637 -0.000353294 0)
(1.01555 0.000488316 0)
(0.999991 -0.000146941 0)
(1.00008 0.000461219 0)
(0.999993 -0.000378362 0)
(0.999877 0.000312565 0)
(1.00008 -3.51666e-05 0)
(1.00005 0.000122425 0)
(1.00013 -0.000748919 0)
(1.00045 -7.92632e-05 0)
(1.00142 -0.00129323 0)
(1.00223 -0.00101444 0)
(1.00373 -0.00234112 0)
(1.00556 -0.00231844 0)
(1.00764 -0.00336398 0)
(1.00977 -0.00332485 0)
(1.01201 -0.00438563 0)
(1.014 -0.00395084 0)
(1.01568 -0.00420556 0)
(1.01669 -0.00284591 0)
(1.01703 -0.0019115 0)
(1.01615 -0.000484318 0)
(0.999937 -0.000227555 0)
(1.00009 0.000924015 0)
(0.999918 -0.000923266 0)
(0.999934 0.00115906 0)
(0.999994 -0.000908005 0)
(1.00006 0.000998037 0)
(1.00004 -0.00140976 0)
(1.00045 0.000593605 0)
(1.00125 -0.00202014 0)
(1.00217 -0.000585471 0)
(1.00353 -0.00291399 0)
(1.00549 -0.001865 0)
(1.00745 -0.00401344 0)
(1.00966 -0.00322888 0)
(1.01188 -0.00525684 0)
(1.01407 -0.00416299 0)
(1.01584 -0.00544219 0)
(1.01719 -0.00370696 0)
(1.0175 -0.00329117 0)
(1.01718 -0.0011713 0)
(0.999911 4.06409e-05 0)
(1.00006 0.000328186 0)
(0.999889 -0.000390823 0)
(0.999946 0.000623583 0)
(0.999939 -0.000434687 0)
(1.00005 0.000403866 0)
(0.999966 -0.000702281 0)
(1.0004 -5.72902e-05 0)
(1.0011 -0.00146395 0)
(1.0021 -0.00120024 0)
(1.00335 -0.00242872 0)
(1.00534 -0.00253809 0)
(1.00723 -0.0038695 0)
(1.0095 -0.0038797 0)
(1.01172 -0.00511155 0)
(1.01404 -0.0049541 0)
(1.01589 -0.00569325 0)
(1.01771 -0.00491556 0)
(1.01835 -0.00372786 0)
(1.01871 -0.000697621 0)
(0.99991 2.61265e-05 0)
(1.00004 0.000101448 0)
(0.999905 2.07873e-05 0)
(0.999924 0.000253589 0)
(0.999919 -3.2979e-05 0)
(1.00001 -0.000118396 0)
(0.999924 -0.000187837 0)
(1.00029 -0.000553184 0)
(1.00099 -0.000963424 0)
(1.00195 -0.00166986 0)
(1.00318 -0.00218477 0)
(1.00511 -0.00309947 0)
(1.00707 -0.00362658 0)
(1.0093 -0.00425524 0)
(1.01155 -0.00487767 0)
(1.01388 -0.00548901 0)
(1.01591 -0.00558964 0)
(1.01815 -0.00494111 0)
(1.01972 -0.00296275 0)
(1.02064 0.000542785 0)
(0.999932 -6.53936e-05 0)
(1.00001 0.000237323 0)
(0.999929 0.000119581 0)
(0.999871 0.000156271 0)
(0.999895 1.15643e-05 0)
(0.999948 -0.000322452 0)
(0.999899 -8.39203e-05 0)
(1.00016 -0.000635371 0)
(1.00088 -0.000782182 0)
(1.00174 -0.00179957 0)
(1.00301 -0.00205265 0)
(1.00489 -0.00310244 0)
(1.00692 -0.00338609 0)
(1.00904 -0.00432436 0)
(1.01132 -0.00473191 0)
(1.01373 -0.0055645 0)
(1.01621 -0.00509904 0)
(1.01898 -0.003646 0)
(1.02132 -0.00113706 0)
(1.02268 0.00211177 0)
(0.999963 -2.21867e-05 0)
(0.999976 0.000236433 0)
(0.999933 9.31229e-05 0)
(0.999806 -7.92209e-06 0)
(0.999865 2.45436e-05 0)
(0.999895 -0.000382499 0)
(0.999893 1.20259e-06 0)
(1.00005 -0.000560953 0)
(1.00076 -0.000643639 0)
(1.00155 -0.00167214 0)
(1.00285 -0.00172836 0)
(1.00464 -0.00283148 0)
(1.00671 -0.00314509 0)
(1.00876 -0.00417715 0)
(1.01111 -0.00441013 0)
(1.01372 -0.00504977 0)
(1.0169 -0.00401348 0)
(1.0202 -0.00198427 0)
(1.02301 0.000621867 0)
(1.0246 0.00342451 0)
(0.999993 -1.21404e-05 0)
(0.999935 0.000198313 0)
(0.999924 -9.00543e-05 0)
(0.999767 4.78938e-05 0)
(0.99985 -3.94051e-05 0)
(0.999874 -6.79525e-05 0)
(0.999895 -6.20715e-05 0)
(0.99995 -0.000245771 0)
(1.00063 -0.000650818 0)
(1.00139 -0.00118637 0)
(1.00267 -0.00152284 0)
(1.00438 -0.00223283 0)
(1.00647 -0.00290165 0)
(1.00853 -0.00354473 0)
(1.011 -0.00393168 0)
(1.01395 -0.00385441 0)
(1.01781 -0.0024579 0)
(1.02156 -0.000312859 0)
(1.02462 0.00203996 0)
(1.02625 0.00431383 0)
(1.00002 1.27809e-05 0)
(0.999888 5.55198e-05 0)
(0.999931 -0.00011958 0)
(0.999758 0.000137419 0)
(0.999875 -2.58008e-06 0)
(0.999865 0.000274024 0)
(0.999882 -0.000135846 0)
(0.999858 1.62241e-05 0)
(1.0005 -0.000622261 0)
(1.00125 -0.000632711 0)
(1.00251 -0.00125914 0)
(1.00414 -0.00147487 0)
(1.00623 -0.00248179 0)
(1.00834 -0.00270984 0)
(1.01103 -0.00319013 0)
(1.01452 -0.00232505 0)
(1.01886 -0.000663684 0)
(1.02287 0.00134922 0)
(1.02601 0.00326238 0)
(1.02754 0.0048967 0)
(1.00006 6.57818e-05 0)
(0.999848 -0.00014647 0)
(0.999977 5.79781e-05 0)
(0.999768 5.46589e-05 0)
(0.99994 0.000230133 0)
(0.999829 0.000315102 0)
(0.999853 -4.24562e-05 0)
(0.999772 -8.59731e-06 0)
(1.00044 -0.000311847 0)
(1.00115 -0.000241547 0)
(1.00239 -0.000645806 0)
(1.00391 -0.00084383 0)
(1.006 -0.00167614 0)
(1.00824 -0.00177214 0)
(1.01127 -0.00173106 0)
(1.01534 -0.000437897 0)
(1.01998 0.00126698 0)
(1.02402 0.00291595 0)
(1.02705 0.00421897 0)
(1.02835 0.00510463 0)
(1.0001 8.86329e-05 0)
(0.999829 -0.000233006 0)
(1.00006 0.000191824 0)
(0.999787 9.18684e-06 0)
(1 0.000441738 0)
(0.99975 0.000175209 0)
(0.999821 4.12901e-05 0)
(0.99974 -5.70114e-05 0)
(1.00047 0.000250156 0)
(1.00112 0.000203228 0)
(1.00233 0.000251045 0)
(1.00371 -9.20294e-05 0)
(1.00587 -0.000311702 0)
(1.00834 -0.000345894 0)
(1.0118 0.000491736 0)
(1.01621 0.0017849 0)
(1.02092 0.00311478 0)
(1.02478 0.00407916 0)
(1.02754 0.0046335 0)
(1.02859 0.00480863 0)
(1.00014 8.28684e-05 0)
(0.99983 -0.000206157 0)
(1.00015 0.000236307 0)
(0.999779 8.91318e-05 0)
(1.00002 0.000413906 0)
(0.999656 1.93728e-05 0)
(0.999843 7.59533e-05 0)
(0.999832 0.000274991 0)
(1.0006 0.000919742 0)
(1.00114 0.000956737 0)
(1.00232 0.00121995 0)
(1.00362 0.00108043 0)
(1.00591 0.00135564 0)
(1.00865 0.00156763 0)
(1.0125 0.00277813 0)
(1.01687 0.00374978 0)
(1.02143 0.00440772 0)
(1.02498 0.0045953 0)
(1.02749 0.00446269 0)
(1.02833 0.00412784 0)
(1.00019 6.2006e-05 0)
(0.999832 -0.000126659 0)
(1.0002 0.000260111 0)
(0.999723 8.32397e-05 0)
(1.00003 0.000236218 0)
(0.999611 -2.27347e-05 0)
(0.999989 0.000358342 0)
(1.00002 0.000927613 0)
(1.00078 0.00156614 0)
(1.0012 0.00179622 0)
(1.0024 0.00210665 0)
(1.00372 0.00239327 0)
(1.00614 0.00296057 0)
(1.00912 0.00357638 0)
(1.01313 0.00466775 0)
(1.01718 0.00522708 0)
(1.02143 0.0052059 0)
(1.02465 0.00474843 0)
(1.02699 0.00407747 0)
(1.02769 0.00332525 0)
(1.00023 3.03931e-05 0)
(0.999808 -1.08707e-05 0)
(1.0002 0.000198758 0)
(0.999682 -3.3826e-05 0)
(1.00007 0.00016429 0)
(0.999658 0.000179743 0)
(1.00024 0.000908022 0)
(1.00022 0.0014957 0)
(1.00098 0.00203759 0)
(1.00132 0.00234524 0)
(1.00264 0.00288009 0)
(1.00405 0.00355751 0)
(1.00663 0.0044925 0)
(1.00968 0.00543272 0)
(1.01358 0.00615666 0)
(1.01712 0.00629727 0)
(1.02092 0.00571685 0)
(1.02381 0.0047329 0)
(1.02599 0.00362581 0)
(1.02658 0.00245975 0)
(1.00023 9.37622e-06 0)
(0.999771 8.72842e-05 0)
(1.0002 4.16176e-05 0)
(0.999702 -4.03058e-05 0)
(1.00015 0.000281065 0)
(0.999805 0.00058551 0)
(1.00051 0.00134068 0)
(1.00041 0.00175393 0)
(1.0012 0.00220986 0)
(1.00159 0.00267091 0)
(1.00311 0.00360896 0)
(1.00465 0.00463085 0)
(1.00735 0.00584961 0)
(1.01019 0.00680692 0)
(1.01371 0.00705631 0)
(1.01668 0.00674171 0)
(1.01994 0.00583666 0)
(1.02249 0.00456041 0)
(1.02449 0.00323896 0)
(1.02505 0.00187019 0)
(1.00018 6.8495e-06 0)
(0.999773 0.000120308 0)
(1.00022 -5.43072e-05 0)
(0.999757 0.000147553 0)
(1.00025 0.000456214 0)
(1.00002 0.000931932 0)
(1.00072 0.00142257 0)
(1.00059 0.0017483 0)
(1.00148 0.00224894 0)
(1.00207 0.00310443 0)
(1.00381 0.00429036 0)
(1.00544 0.00551479 0)
(1.00809 0.00662121 0)
(1.01048 0.0072528 0)
(1.01345 0.00714264 0)
(1.01595 0.00653091 0)
(1.01877 0.00565253 0)
(1.02102 0.00446715 0)
(1.02286 0.00324711 0)
(1.0234 0.00198249 0)
(1.00013 6.76174e-06 0)
(0.999823 0.000138695 0)
(1.00019 -7.77352e-06 0)
(0.999836 0.000365054 0)
(1.00039 0.000534799 0)
(1.00022 0.00104889 0)
(1.00085 0.00129458 0)
(1.00084 0.00174505 0)
(1.00191 0.00247734 0)
(1.00277 0.00364734 0)
(1.00457 0.00475428 0)
(1.0062 0.00588573 0)
(1.00856 0.00652673 0)
(1.01054 0.0067166 0)
(1.01301 0.00644804 0)
(1.01524 0.00585843 0)
(1.01777 0.00519387 0)
(1.01976 0.00431185 0)
(1.02139 0.00335793 0)
(1.02183 0.00236381 0)
(1.0001 2.12264e-05 0)
(0.99987 0.000170671 0)
(1.00014 8.12772e-05 0)
(0.99998 0.000476157 0)
(1.00049 0.000543371 0)
(1.00039 0.0010086 0)
(1.00098 0.00124664 0)
(1.00125 0.00197987 0)
(1.00247 0.00289617 0)
(1.0035 0.00398322 0)
(1.00521 0.00482499 0)
(1.00672 0.00550285 0)
(1.00864 0.00559709 0)
(1.0104 0.00542946 0)
(1.01257 0.00508247 0)
(1.01469 0.00464416 0)
(1.017 0.00413132 0)
(1.01882 0.00353356 0)
(1.02025 0.00292283 0)
(1.02065 0.00235106 0)
(1.00007 6.62506e-05 0)
(0.999895 0.000156739 0)
(1.00013 0.000192279 0)
(1.00015 0.000485485 0)
(1.00049 0.000571539 0)
(1.00059 0.000999976 0)
(1.00121 0.00145731 0)
(1.0018 0.00231872 0)
(1.003 0.00318541 0)
(1.00407 0.00386737 0)
(1.00554 0.00436328 0)
(1.0068 0.00436865 0)
(1.00837 0.00414671 0)
(1.01007 0.00376553 0)
(1.01213 0.00338837 0)
(1.01424 0.00297195 0)
(1.01641 0.00255294 0)
(1.01828 0.00218341 0)
(1.01976 0.00200577 0)
(1.02035 0.00197442 0)
(1.00005 0.000125585 0)
(0.999932 8.24787e-05 0)
(1.00014 0.000383769 0)
(1.00024 0.000399663 0)
(1.00049 0.000713009 0)
(1.0009 0.00112938 0)
(1.00153 0.00180985 0)
(1.00233 0.00239234 0)
(1.00334 0.00306154 0)
(1.00435 0.00325867 0)
(1.00546 0.00342506 0)
(1.00653 0.00302491 0)
(1.00798 0.00289941 0)
(1.00965 0.00245294 0)
(1.01164 0.00212322 0)
(1.01376 0.0015246 0)
(1.01601 0.00114505 0)
(1.0182 0.000822977 0)
(1.02005 0.000932259 0)
(1.02105 0.00118932 0)
(1.00005 0.000187372 0)
(0.999967 -6.34192e-06 0)
(1.00013 0.000588146 0)
(1.00026 0.000285404 0)
(1.00069 0.0010651 0)
(1.00123 0.00121578 0)
(1.00182 0.00195424 0)
(1.00264 0.00205729 0)
(1.00348 0.00256044 0)
(1.00435 0.0024414 0)
(1.00525 0.00258078 0)
(1.00633 0.00237268 0)
(1.00775 0.00254745 0)
(1.00922 0.00212062 0)
(1.01099 0.00178381 0)
(1.01299 0.000878717 0)
(1.01545 0.000259392 0)
(1.01804 -0.000460809 0)
(1.02045 -0.000617162 0)
(1.02194 -0.000673782 0)
(1.00005 0.000253058 0)
(0.999958 -7.49277e-05 0)
(1.0002 0.000693819 0)
(1.00031 0.000302834 0)
(1.00105 0.00141378 0)
(1.00129 0.00105259 0)
(1.0021 0.00173598 0)
(1.00266 0.00159822 0)
(1.00363 0.00205533 0)
(1.0043 0.00196862 0)
(1.00541 0.00240567 0)
(1.00645 0.0026006 0)
(1.00769 0.00287472 0)
(1.00866 0.00250855 0)
(1.00999 0.00201124 0)
(1.01151 0.000928351 0)
(1.01394 -0.000203572 0)
(1.01668 -0.00157152 0)
(1.01969 -0.00254362 0)
(1.02181 -0.00331593 0)
(1.00009 0.000302315 0)
(0.999924 -9.63859e-05 0)
(1.00046 0.000664816 0)
(1.00038 0.000537633 0)
(1.00135 0.00129437 0)
(1.00109 0.000875448 0)
(1.00242 0.00143279 0)
(1.00256 0.00140716 0)
(1.00397 0.00181418 0)
(1.0044 0.00199257 0)
(1.006 0.00251683 0)
(1.00657 0.00281508 0)
(1.00768 0.00291065 0)
(1.00787 0.00275988 0)
(1.0088 0.00224317 0)
(1.0094 0.00151482 0)
(1.01133 0.000274161 0)
(1.01365 -0.001135 0)
(1.01707 -0.00281814 0)
(1.01979 -0.00419557 0)
(1.00023 0.000280033 0)
(0.99988 1.68078e-05 0)
(1.00078 0.000511931 0)
(1.00035 0.000843227 0)
(1.00144 0.00076255 0)
(1.00102 0.00104855 0)
(1.00269 0.00124889 0)
(1.00256 0.00151126 0)
(1.00435 0.00162661 0)
(1.00458 0.002023 0)
(1.00645 0.00208224 0)
(1.00652 0.00234733 0)
(1.00776 0.00225685 0)
(1.00743 0.00265664 0)
(1.00826 0.00264026 0)
(1.00804 0.00295322 0)
(1.00931 0.00248952 0)
(1.01038 0.00194001 0)
(1.01313 0.000352778 0)
(1.01555 -0.00123296 0)
(1.00036 8.42819e-05 0)
(0.999865 0.000392934 0)
(1.00086 0.000245996 0)
(1.00036 0.000984678 0)
(1.00137 0.000400087 0)
(1.00131 0.00142007 0)
(1.00267 0.000950458 0)
(1.00273 0.0016285 0)
(1.00439 0.00118556 0)
(1.0047 0.00174352 0)
(1.00634 0.00122489 0)
(1.00663 0.00174395 0)
(1.00815 0.00167283 0)
(1.00834 0.00277803 0)
(1.00936 0.00342875 0)
(1.00905 0.00482291 0)
(1.00939 0.00533303 0)
(1.00889 0.00577189 0)
(1.00947 0.00490154 0)
(1.01009 0.00377109 0)
(1.00019 -0.000136887 0)
(1 0.000805814 0)
(1.00062 -5.99685e-06 0)
(1.00062 0.000881023 0)
(1.00125 0.000388834 0)
(1.00167 0.00138483 0)
(1.00237 0.00056032 0)
(1.00304 0.00144331 0)
(1.004 0.00069425 0)
(1.00487 0.00132865 0)
(1.00605 0.000804664 0)
(1.00737 0.00165355 0)
(1.00897 0.00178765 0)
(1.01046 0.00305799 0)
(1.01159 0.00377615 0)
(1.01183 0.00529542 0)
(1.01104 0.00622791 0)
(1.0094 0.00743316 0)
(1.00778 0.00782679 0)
(1.00699 0.00821323 0)
(0.999884 -0.00016699 0)
(1.0002 0.000841478 0)
(1.00021 -9.44431e-05 0)
(1.001 0.000824922 0)
(1.00107 0.000342082 0)
(1.00185 0.000927385 0)
(1.00205 0.000417436 0)
(1.00329 0.0010162 0)
(1.00359 0.000506146 0)
(1.00526 0.001006 0)
(1.00617 0.000852877 0)
(1.00847 0.00161828 0)
(1.00983 0.00182055 0)
(1.0121 0.00266062 0)
(1.01311 0.00305241 0)
(1.01441 0.00412391 0)
(1.01389 0.00512378 0)
(1.01321 0.00703256 0)
(1.01145 0.00901797 0)
(1.01076 0.0114691 0)
(0.999662 -0.00010566 0)
(1.00033 0.000449142 0)
(0.999899 -5.88146e-05 0)
(1.00124 0.0006813 0)
(1.00068 0.000212218 0)
(1.00199 0.000507299 0)
(1.00188 0.000557535 0)
(1.00334 0.000618675 0)
(1.00349 0.000607853 0)
(1.00553 0.000640077 0)
(1.0065 0.000715801 0)
(1.00906 0.000834947 0)
(1.01037 0.00101011 0)
(1.01294 0.00142872 0)
(1.0143 0.00215332 0)
(1.01673 0.0033963 0)
(1.01806 0.00508506 0)
(1.02026 0.00745567 0)
(1.02083 0.0101219 0)
(1.0211 0.0130256 0)
(0.999731 0.000390906 0)
(1.00031 -0.000459361 0)
(0.999745 0.000433174 0)
(1.00128 -0.000153054 0)
(1.00038 0.000401252 0)
(1.00221 -8.93199e-05 0)
(1.00186 0.00070685 0)
(1.00328 8.00638e-05 0)
(1.00348 0.000697472 0)
(1.00528 1.81914e-05 0)
(1.00639 0.000413953 0)
(1.00882 -0.000287965 0)
(1.01091 0.000182134 0)
(1.0144 0.000164869 0)
(1.01755 0.00161902 0)
(1.02155 0.00296608 0)
(1.02458 0.00565081 0)
(1.0276 0.00796882 0)
(1.02877 0.0107476 0)
(1.02903 0.0125388 0)
(0.99999 0.000429874 0)
(1.00003 -0.000538858 0)
(1.00019 0.000445311 0)
(1.00084 -0.00039511 0)
(1.0008 0.000311261 0)
(1.00198 -0.000260239 0)
(1.00224 0.000367885 0)
(1.00299 -0.000142304 0)
(1.00361 0.000343875 0)
(1.00474 -0.000177772 0)
(1.00619 0.000147208 0)
(1.00833 -0.000381869 0)
(1.0115 -1.79586e-05 0)
(1.01589 -0.000168757 0)
(1.02121 0.000693447 0)
(1.02712 0.0012527 0)
(1.03243 0.00276718 0)
(1.03593 0.00385509 0)
(1.03654 0.00534259 0)
(1.03408 0.00597261 0)
(1.00107 0.000286136 0)
(0.97558 0.000775752 0)
(0.949728 0.0012359 0)
(0.923961 0.00157399 0)
(0.898272 0.00184001 0)
(0.87256 0.00206745 0)
(0.846755 0.0022118 0)
(0.820443 0.00224985 0)
(0.793857 0.00234571 0)
(0.766592 0.00236642 0)
(0.739027 0.00239715 0)
(0.710719 0.00242497 0)
(0.681952 0.00247309 0)
(0.652612 0.00251666 0)
(0.622802 0.00250279 0)
(0.592667 0.00258243 0)
(0.562058 0.00257922 0)
(0.531085 0.00259366 0)
(0.499849 0.00253503 0)
(0.468527 0.00246123 0)
(0.437003 0.00243892 0)
(0.405648 0.00241635 0)
(0.374347 0.00241278 0)
(0.344183 0.00211558 0)
(0.316303 0.00176114 0)
(0.291308 0.0014826 0)
(0.270772 0.000943846 0)
(0.255181 0.000333702 0)
(0.243488 -4.69975e-05 0)
(0.234833 -0.000297516 0)
(0.228586 -0.000532213 0)
(0.223933 -0.000643427 0)
(0.220443 -0.000600246 0)
(0.217875 -0.000536526 0)
(0.21567 -0.000432925 0)
(0.213583 -0.000267198 0)
(0.211501 -0.000184861 0)
(0.209144 -0.000150423 0)
(0.206742 -7.1952e-05 0)
(0.204275 -2.43774e-06 0)
(0.201754 3.6321e-05 0)
(0.199169 3.34253e-05 0)
(0.196382 2.49201e-05 0)
(0.193624 5.52742e-05 0)
(0.190987 8.16573e-05 0)
(0.188314 9.02288e-05 0)
(0.185684 7.15807e-05 0)
(0.182944 4.43236e-05 0)
(0.180303 5.63968e-05 0)
(0.177936 5.36516e-05 0)
(0.175603 2.90937e-05 0)
(0.173269 3.29479e-05 0)
(0.171147 1.84177e-05 0)
(0.16907 -8.03723e-07 0)
(0.167084 2.17993e-05 0)
(0.165298 2.16902e-05 0)
(0.163703 -4.82033e-06 0)
(0.162012 5.39002e-06 0)
(0.160338 1.755e-05 0)
(0.15892 -6.95312e-08 0)
(0.157795 -7.81519e-06 0)
(0.156577 1.88414e-06 0)
(0.155377 2.08893e-06 0)
(0.154351 -4.34978e-06 0)
(0.153559 -3.02341e-06 0)
(0.152742 1.21017e-06 0)
(0.152024 -8.00071e-07 0)
(0.151376 -2.50898e-06 0)
(0.150864 -3.9594e-07 0)
(0.15032 -2.50503e-08 0)
(0.149933 -1.85249e-06 0)
(0.149543 -3.92821e-07 0)
(0.149257 5.82792e-07 0)
(0.148928 -6.80696e-07 0)
(0.148764 -7.5293e-07 0)
(0.148525 6.42604e-07 0)
(0.148405 4.55639e-07 0)
(0.148215 -3.76052e-07 0)
(0.148181 -1.25443e-07 0)
(0.148025 2.79232e-07 0)
(0.148019 -6.16842e-08 0)
(0.147888 -9.9222e-08 0)
(0.147934 -1.11862e-07 0)
(0.147812 1.56318e-07 0)
(0.147892 -7.16652e-08 0)
(0.147769 1.32414e-07 0)
(0.147889 1.67766e-08 0)
(0.147748 2.73087e-07 0)
(0.147909 8.7883e-08 0)
(0.147729 4.76289e-07 0)
(0.14794 1.93303e-07 0)
(0.14769 8.62805e-07 0)
(0.14797 5.30938e-07 0)
(0.147603 1.57394e-06 0)
(0.147976 1.5681e-06 0)
(0.147421 2.59587e-06 0)
(0.147908 5.54983e-06 0)
(0.147055 8.75409e-07 0)
(0.147727 2.01049e-05 0)
(0.146088 2.835e-05 0)
(1.01413 0.00107732 0)
(1.01212 0.00209695 0)
(1.00987 0.00309804 0)
(1.00726 0.00382682 0)
(1.00475 0.00439392 0)
(1.00197 0.00488736 0)
(0.998764 0.00515328 0)
(0.995199 0.00525146 0)
(0.99066 0.00535527 0)
(0.985874 0.00543601 0)
(0.979782 0.00546677 0)
(0.973489 0.00554838 0)
(0.965756 0.00567546 0)
(0.95761 0.00577212 0)
(0.94838 0.00586749 0)
(0.938228 0.00599247 0)
(0.927523 0.00612503 0)
(0.915135 0.00622213 0)
(0.902578 0.00622298 0)
(0.888226 0.00624004 0)
(0.873331 0.00620976 0)
(0.857248 0.00617593 0)
(0.840013 0.00621029 0)
(0.822487 0.006019 0)
(0.804305 0.00567413 0)
(0.786927 0.00525957 0)
(0.769981 0.00461949 0)
(0.754608 0.00386961 0)
(0.740905 0.00319596 0)
(0.727544 0.00262488 0)
(0.715594 0.00212586 0)
(0.704309 0.00170184 0)
(0.69282 0.00135112 0)
(0.682874 0.00112915 0)
(0.67295 0.000991939 0)
(0.662593 0.000864244 0)
(0.653794 0.000821017 0)
(0.644084 0.000819703 0)
(0.634353 0.000765152 0)
(0.625539 0.000686194 0)
(0.616199 0.000672672 0)
(0.607232 0.000706812 0)
(0.598122 0.000674228 0)
(0.589167 0.00062625 0)
(0.580861 0.000597659 0)
(0.571895 0.000569171 0)
(0.56381 0.000591113 0)
(0.555715 0.000571783 0)
(0.546977 0.000487228 0)
(0.539748 0.000460113 0)
(0.532535 0.000455237 0)
(0.524503 0.000415767 0)
(0.517953 0.000375331 0)
(0.511371 0.000344584 0)
(0.504397 0.000306369 0)
(0.498671 0.000265317 0)
(0.493283 0.000253344 0)
(0.48713 0.000250379 0)
(0.481884 0.000203341 0)
(0.477425 0.000156552 0)
(0.472953 0.000153661 0)
(0.468402 0.000150233 0)
(0.464571 0.000118903 0)
(0.460987 8.80554e-05 0)
(0.45771 7.80569e-05 0)
(0.454589 7.57729e-05 0)
(0.451996 5.93008e-05 0)
(0.449409 4.42226e-05 0)
(0.447253 4.25303e-05 0)
(0.445165 3.70838e-05 0)
(0.443512 2.39604e-05 0)
(0.441772 2.20983e-05 0)
(0.440523 2.16463e-05 0)
(0.439155 1.40044e-05 0)
(0.438233 9.47023e-06 0)
(0.437124 1.07131e-05 0)
(0.436511 8.52595e-06 0)
(0.435643 4.43327e-06 0)
(0.435265 4.08031e-06 0)
(0.434555 4.26524e-06 0)
(0.434372 2.38468e-06 0)
(0.433774 1.13364e-06 0)
(0.433772 5.19418e-07 0)
(0.433243 5.14342e-07 0)
(0.433407 -4.15772e-07 0)
(0.432903 -5.56151e-07 0)
(0.433232 -6.98678e-07 0)
(0.432699 -7.16367e-07 0)
(0.433201 -4.29976e-07 0)
(0.432568 -4.63106e-07 0)
(0.433275 5.49219e-07 0)
(0.432446 1.12423e-07 0)
(0.433413 2.79208e-06 0)
(0.432264 7.97288e-07 0)
(0.43355 7.34361e-06 0)
(0.431956 2.1025e-06 0)
(0.433571 1.5812e-05 0)
(0.431454 7.64279e-06 0)
(0.433217 2.29316e-05 0)
(0.430667 7.43375e-05 0)
(1.01396 0.00169919 0)
(1.01254 0.00275194 0)
(1.01124 0.00385956 0)
(1.01027 0.00475372 0)
(1.00971 0.00545067 0)
(1.0097 0.00607418 0)
(1.00954 0.00636844 0)
(1.00984 0.00646943 0)
(1.00954 0.00648599 0)
(1.00967 0.00655229 0)
(1.00909 0.00657049 0)
(1.00874 0.00662567 0)
(1.00781 0.00683691 0)
(1.00679 0.00693246 0)
(1.0056 0.00713087 0)
(1.00387 0.00726701 0)
(1.00233 0.00750398 0)
(0.999826 0.00768138 0)
(0.997527 0.00768279 0)
(0.994258 0.00783853 0)
(0.990777 0.00780665 0)
(0.986702 0.00784317 0)
(0.981949 0.00793538 0)
(0.977092 0.00780184 0)
(0.971489 0.00751002 0)
(0.965967 0.0070054 0)
(0.960052 0.00636654 0)
(0.954254 0.00555622 0)
(0.948768 0.00477442 0)
(0.943026 0.00419997 0)
(0.937556 0.00360997 0)
(0.93205 0.00317063 0)
(0.926325 0.00286031 0)
(0.920809 0.00248498 0)
(0.915457 0.00237394 0)
(0.909449 0.00229076 0)
(0.904023 0.00208306 0)
(0.898275 0.0021246 0)
(0.891948 0.00208976 0)
(0.88622 0.00190773 0)
(0.880071 0.00188119 0)
(0.873652 0.00189591 0)
(0.867506 0.00187047 0)
(0.860845 0.00177285 0)
(0.854548 0.00169446 0)
(0.847778 0.00168097 0)
(0.841012 0.00161551 0)
(0.834423 0.00160191 0)
(0.827151 0.00155126 0)
(0.820364 0.00137856 0)
(0.813957 0.00136622 0)
(0.806484 0.00137612 0)
(0.799845 0.00120952 0)
(0.793323 0.001167 0)
(0.786227 0.00116634 0)
(0.779706 0.000983981 0)
(0.773697 0.000922726 0)
(0.766848 0.000998684 0)
(0.760515 0.000874814 0)
(0.75471 0.000698136 0)
(0.749091 0.000700147 0)
(0.743108 0.000706185 0)
(0.737764 0.000603099 0)
(0.732598 0.000513217 0)
(0.727727 0.00047995 0)
(0.7228 0.000441473 0)
(0.718669 0.000380297 0)
(0.714388 0.000333734 0)
(0.710579 0.000302864 0)
(0.70677 0.00026334 0)
(0.703651 0.000221248 0)
(0.700263 0.00019711 0)
(0.697665 0.000172344 0)
(0.694851 0.000140854 0)
(0.692745 0.000118943 0)
(0.690285 0.000104625 0)
(0.688681 8.61351e-05 0)
(0.686641 6.7664e-05 0)
(0.685447 5.79993e-05 0)
(0.683723 4.88079e-05 0)
(0.682933 3.85231e-05 0)
(0.681461 2.91431e-05 0)
(0.681027 2.33535e-05 0)
(0.679738 1.70796e-05 0)
(0.679658 1.2687e-05 0)
(0.678486 7.1021e-06 0)
(0.678748 5.99043e-06 0)
(0.677623 9.00093e-07 0)
(0.678217 2.30123e-06 0)
(0.67705 -2.89866e-06 0)
(0.677989 1.44842e-06 0)
(0.676684 -4.0714e-06 0)
(0.677976 3.46319e-06 0)
(0.67644 -2.07428e-06 0)
(0.678048 7.73032e-06 0)
(0.676237 5.64327e-06 0)
(0.678025 1.24124e-05 0)
(0.676002 2.71177e-05 0)
(0.677614 1.15162e-05 0)
(0.675628 0.000109971 0)
(1.01411 0.0020072 0)
(1.01283 0.00290517 0)
(1.01144 0.00392919 0)
(1.01052 0.00491198 0)
(1.00997 0.00572496 0)
(1.01002 0.0064142 0)
(1.01004 0.00674201 0)
(1.01049 0.00683203 0)
(1.01072 0.00675704 0)
(1.01117 0.00675868 0)
(1.01141 0.00673352 0)
(1.0117 0.00673563 0)
(1.01188 0.00694118 0)
(1.01196 0.00702957 0)
(1.01217 0.00722849 0)
(1.01221 0.00735281 0)
(1.01247 0.00763849 0)
(1.01244 0.00781461 0)
(1.01256 0.00783928 0)
(1.01242 0.0080712 0)
(1.01226 0.00806361 0)
(1.01191 0.00815082 0)
(1.01144 0.00825208 0)
(1.01101 0.0081379 0)
(1.01032 0.00783975 0)
(1.00959 0.00729193 0)
(1.00855 0.00663571 0)
(1.00734 0.00578461 0)
(1.00605 0.00498538 0)
(1.00445 0.0043777 0)
(1.00288 0.00376186 0)
(1.001 0.00336625 0)
(0.999146 0.00306374 0)
(0.997174 0.00265703 0)
(0.995302 0.00260766 0)
(0.993199 0.00259959 0)
(0.991242 0.00237675 0)
(0.989124 0.00248253 0)
(0.986834 0.00251023 0)
(0.984669 0.00229054 0)
(0.982348 0.00230972 0)
(0.97974 0.00236586 0)
(0.97744 0.00232665 0)
(0.974718 0.00225336 0)
(0.97214 0.00218701 0)
(0.969283 0.00218587 0)
(0.966355 0.0021327 0)
(0.963423 0.00214785 0)
(0.960183 0.00212532 0)
(0.956845 0.00190286 0)
(0.953803 0.0019069 0)
(0.950064 0.00197799 0)
(0.94666 0.00175645 0)
(0.943166 0.00170795 0)
(0.93948 0.00176333 0)
(0.935759 0.00152493 0)
(0.932294 0.00143252 0)
(0.928285 0.00157286 0)
(0.92465 0.00143431 0)
(0.920886 0.00118361 0)
(0.917294 0.00118714 0)
(0.913342 0.00121896 0)
(0.909823 0.00108332 0)
(0.906098 0.000953833 0)
(0.902659 0.000916752 0)
(0.898932 0.000863105 0)
(0.89585 0.000764954 0)
(0.892381 0.000698843 0)
(0.889341 0.000657551 0)
(0.885987 0.000589869 0)
(0.883276 0.000518884 0)
(0.880105 0.000475845 0)
(0.87776 0.000429533 0)
(0.87495 0.000373637 0)
(0.872864 0.000333761 0)
(0.87018 0.000300517 0)
(0.868396 0.00025964 0)
(0.865973 0.00021976 0)
(0.864517 0.000194597 0)
(0.86238 0.000169446 0)
(0.86131 0.000145402 0)
(0.859386 0.000121592 0)
(0.858639 0.000105278 0)
(0.85687 8.58227e-05 0)
(0.856452 7.20736e-05 0)
(0.854813 5.45279e-05 0)
(0.854741 4.64279e-05 0)
(0.853221 3.13837e-05 0)
(0.853495 2.79402e-05 0)
(0.85205 1.47317e-05 0)
(0.852665 1.54759e-05 0)
(0.851241 4.71458e-06 0)
(0.85217 8.4305e-06 0)
(0.850726 2.75977e-06 0)
(0.851889 5.68164e-06 0)
(0.850429 1.2309e-05 0)
(0.851676 4.20137e-06 0)
(0.85027 4.26613e-05 0)
(0.851316 1.03954e-06 0)
(0.850111 0.000134497 0)
(1.01436 0.00186953 0)
(1.01316 0.00258814 0)
(1.01179 0.00348702 0)
(1.01083 0.00456659 0)
(1.01029 0.0055393 0)
(1.01018 0.00631272 0)
(1.01022 0.00671897 0)
(1.01049 0.00681905 0)
(1.01084 0.00672483 0)
(1.01121 0.00663167 0)
(1.01158 0.00657661 0)
(1.01189 0.00652956 0)
(1.01218 0.00671061 0)
(1.01239 0.00680985 0)
(1.01268 0.00698665 0)
(1.01301 0.00715543 0)
(1.01341 0.0074463 0)
(1.01377 0.00764925 0)
(1.01422 0.00772182 0)
(1.01459 0.008001 0)
(1.01502 0.00800838 0)
(1.01533 0.00807528 0)
(1.01577 0.00814677 0)