/*--------------------------------*- C++ -*----------------------------------*\
  =========                 |
  \\      /  F ield         | OpenFOAM: The Open Source CFD Toolbox
   \\    /   O peration     | Website:  https://openfoam.org
    \\  /    A nd           | Version:  6
     \\/     M anipulation  |
\*---------------------------------------------------------------------------*/
FoamFile
{
    version     2.0;
    format      ascii;
    class       volScalarField;
    location    "0.1";
    object      p;
}
// * * * * * * * * * * * * * * * * * * * * * * * * * * * * * * * * * * * * * //

dimensions      [0 2 -2 0 0 0 0];

internalField   nonuniform List<scalar> 
4800
(
2.32911e-11
0.000585873
0.000755123
0.000115448
0.000662851
0.000688519
0.000405934
0.000812271
0.000992432
0.000845021
0.00109743
0.0014547
0.0014413
0.00153838
0.00197632
0.00240346
0.00258669
0.0028206
0.00323567
0.00370869
8.63844e-06
0.000579959
0.00075113
0.000124018
0.000659672
0.000682871
0.000408719
0.000818268
0.000991172
0.000840897
0.00109206
0.00145948
0.00144298
0.00154373
0.00197753
0.00239851
0.00258903
0.00281033
0.00324155
0.00370668
1.57456e-05
0.000571155
0.0007513
0.000128272
0.000658409
0.000682597
0.000410231
0.000819235
0.000989551
0.000841738
0.00108537
0.00147064
0.00143893
0.00154118
0.00198269
0.00240051
0.00258306
0.00279296
0.00327689
0.00369662
2.3775e-05
0.000564023
0.000746041
0.000136263
0.000660112
0.000678376
0.000410689
0.000822528
0.000991899
0.000840002
0.00107408
0.00148117
0.00143848
0.00153638
0.00199346
0.00240507
0.0025642
0.00277957
0.00329611
0.00363791
3.36158e-05
0.0005537
0.000742393
0.000146581
0.00065418
0.000681972
0.000409881
0.000825367
0.00099004
0.000837497
0.00107037
0.00148531
0.00144579
0.00152637
0.00199041
0.00241018
0.00256341
0.00275299
0.0032462
0.00357622
4.35095e-05
0.000543219
0.000739567
0.000152985
0.000653317
0.00068663
0.000399131
0.000837122
0.000984009
0.000839236
0.00106825
0.00147092
0.00146635
0.00151801
0.00197174
0.00242501
0.00257132
0.00268687
0.00314576
0.00352112
5.46096e-05
0.000532079
0.000734194
0.000163903
0.000650495
0.000684029
0.000398822
0.000849189
0.000966248
0.000847173
0.00106511
0.00145096
0.00149968
0.00150862
0.0019336
0.00242949
0.00257321
0.00261268
0.00301969
0.00340562
6.67119e-05
0.000519169
0.000729788
0.000176098
0.000639651
0.000692504
0.000398264
0.000842912
0.000964235
0.000857092
0.00105465
0.00143502
0.00152076
0.00149662
0.0018977
0.00242312
0.00256514
0.00253088
0.00284713
0.00321171
7.9608e-05
0.000505665
0.000724831
0.000187432
0.00063007
0.000704816
0.000382869
0.000846366
0.000980675
0.000832047
0.00105054
0.00143907
0.00151251
0.00149489
0.00188437
0.00237973
0.00250476
0.00243281
0.00267179
0.00301209
9.35825e-05
0.000491292
0.000718152
0.000201929
0.000618103
0.000712232
0.000374286
0.000856913
0.00097818
0.000795452
0.00108377
0.00144016
0.00146098
0.0015068
0.00188575
0.0022868
0.00240121
0.00236023
0.00253456
0.00279151
0.000108529
0.000475991
0.000710496
0.000218773
0.000600219
0.000723804
0.000373763
0.000845292
0.000978492
0.000789355
0.00110136
0.00140726
0.00141548
0.00153711
0.00187717
0.00216759
0.0022831
0.00228935
0.00238084
0.00253251
0.000124356
0.000460225
0.000701182
0.00023718
0.000579904
0.000738101
0.000370719
0.000821918
0.00100596
0.000779039
0.0010625
0.00140185
0.00142551
0.00152155
0.00181011
0.00206466
0.00217597
0.00217553
0.00220795
0.00233387
0.000140998
0.000444219
0.000689575
0.000258106
0.000557527
0.00074895
0.000372695
0.000797577
0.00103315
0.000751286
0.00101879
0.00144553
0.00142529
0.00141077
0.00172597
0.00204423
0.00209117
0.00199443
0.00202572
0.00221322
0.000158283
0.000428279
0.000675521
0.000281336
0.000532726
0.000756202
0.000385308
0.000762592
0.00104653
0.000744779
0.000985632
0.00145885
0.00138673
0.00130262
0.00168737
0.00204643
0.00196258
0.00175267
0.00184824
0.00215734
0.000175983
0.000412825
0.000658757
0.000306136
0.000507217
0.000758941
0.000405586
0.000717198
0.00105451
0.000765761
0.000929469
0.00141782
0.00138152
0.00126293
0.00161168
0.0019431
0.00181061
0.0015896
0.00174725
0.00212603
0.000193828
0.000398259
0.00063914
0.000331829
0.000482718
0.000754493
0.000432184
0.000670583
0.00105194
0.000794242
0.000859333
0.00136142
0.00141437
0.00122769
0.00144011
0.00178072
0.00176124
0.00157676
0.00164897
0.0019403
0.000211493
0.000384947
0.000616794
0.00035739
0.000460535
0.000741708
0.00046423
0.000627348
0.00102927
0.000825501
0.000805869
0.00129101
0.0014198
0.00117412
0.00126749
0.00165887
0.00177239
0.00155657
0.00143361
0.00160672
0.000228619
0.000373202
0.000592061
0.000381502
0.000441953
0.000720763
0.000498157
0.000590077
0.000987376
0.000857967
0.000772894
0.00119119
0.00138086
0.0011486
0.00116009
0.00153192
0.00169083
0.00144755
0.00122859
0.00136681
0.000244832
0.000363223
0.000565493
0.000402804
0.000427863
0.000692503
0.000529499
0.000561922
0.000931354
0.000880813
0.000752999
0.00107688
0.00131748
0.00114883
0.00107899
0.00134685
0.00152231
0.00135772
0.00116671
0.00124382
0.000259767
0.000355065
0.000537824
0.000420033
0.000418434
0.000658603
0.0005544
0.000543907
0.000865882
0.000884678
0.00074397
0.000970103
0.00123105
0.00113163
0.000999701
0.00115787
0.0013594
0.00130892
0.00113671
0.00108708
0.00027309
0.000348623
0.00050988
0.000432171
0.000413115
0.000621361
0.000569829
0.000534136
0.000796537
0.000867241
0.00074072
0.000877097
0.00111932
0.00108281
0.000937941
0.00101328
0.00120366
0.00120957
0.0010372
0.0009144
0.000284521
0.000343637
0.000482478
0.000438591
0.00041072
0.000583118
0.000573986
0.000529076
0.000728898
0.000829928
0.000733435
0.000797175
0.000995515
0.00101072
0.000888129
0.000895723
0.00102711
0.00105166
0.000922487
0.000811677
0.000293847
0.000339711
0.00045631
0.000439125
0.000409616
0.000545797
0.000566617
0.000524562
0.000666407
0.00077628
0.000714441
0.000729087
0.000873993
0.000918562
0.000826904
0.000786538
0.000854922
0.000894267
0.000826927
0.000736287
0.000300926
0.000336355
0.000431854
0.00043405
0.000408004
0.000510594
0.000548809
0.000516597
0.00060995
0.000711602
0.000680609
0.000668265
0.000760103
0.000809754
0.000747413
0.000688257
0.00071164
0.000747578
0.000709168
0.000619329
0.000305692
0.000333042
0.000409317
0.000423994
0.000404225
0.000477856
0.000522477
0.000502189
0.000558496
0.00064128
0.000631951
0.000608209
0.000654871
0.00069397
0.000654977
0.00059583
0.000585139
0.000595581
0.000562029
0.000484991
0.000308136
0.000329259
0.00038863
0.000409795
0.000396996
0.000447167
0.000489817
0.000479798
0.000509876
0.000569274
0.000570775
0.000544357
0.000557746
0.000579141
0.000552575
0.000497916
0.000463513
0.000449208
0.00041932
0.000363061
0.000308303
0.000324555
0.000369486
0.000392343
0.000385553
0.000417612
0.000452837
0.000449282
0.000461671
0.000497802
0.000500787
0.000474842
0.000466074
0.00046803
0.000443497
0.000393594
0.000348551
0.000318835
0.000286723
0.000237154
0.000306269
0.000318579
0.000351421
0.000372451
0.000369666
0.000388107
0.000413076
0.000411552
0.000411981
0.000427674
0.000425709
0.000399704
0.00037687
0.000361621
0.000333363
0.000286925
0.00023811
0.000197012
0.00015652
0.000106667
0.000302141
0.000311097
0.000333916
0.00035078
0.00034957
0.000357705
0.000371548
0.000368113
0.000359815
0.000358826
0.000348475
0.000320406
0.000288613
0.000260142
0.000225698
0.000179642
0.000128663
8.01625e-05
3.33919e-05
-1.63106e-05
0.000296054
0.000302007
0.000316493
0.000327829
0.000325834
0.00032581
0.000328875
0.000320656
0.000305103
0.000290956
0.000271148
0.000239104
0.000201056
0.000162981
0.000121858
7.39122e-05
2.15879e-05
-3.04146e-05
-8.08642e-05
-0.000131791
0.000288184
0.000291337
0.000298803
0.000303977
0.000299242
0.000292274
0.000285493
0.000270809
0.000248511
0.000223991
0.000195107
0.000157907
0.000114797
6.98312e-05
2.28973e-05
-2.77383e-05
-8.1283e-05
-0.000135211
-0.000188161
-0.000240556
0.000278766
0.000279251
0.000280685
0.000279567
0.000270694
0.000257399
0.000241869
0.000220056
0.000191193
0.000158292
0.000121365
7.86306e-05
3.10192e-05
-1.89725e-05
-7.04548e-05
-0.000123831
-0.000178765
-0.000233936
-0.000288221
-0.00034133
0.000268123
0.000266058
0.000262214
0.000254993
0.000241163
0.000221878
0.000198659
0.000169788
0.000134584
9.46975e-05
5.09087e-05
2.84891e-06
-4.8892e-05
-0.000102751
-0.000157671
-0.000213376
-0.000269539
-0.000325424
-0.000380267
-0.000433655
0.000256699
0.000252227
0.000243722
0.000230793
0.000211699
0.000186715
0.000156786
0.000121402
8.02971e-05
3.44875e-05
-1.50556e-05
-6.79247e-05
-0.000123459
-0.000180526
-0.00023812
-0.000295666
-0.000352766
-0.000408969
-0.00046383
-0.000517044
0.000245096
0.00023839
0.00022579
0.000207713
0.000183484
0.000153197
0.000117478
7.64042e-05
3.0089e-05
-2.06863e-05
-7.49552e-05
-0.00013196
-0.000190913
-0.000250839
-0.000310782
-0.000370017
-0.000428027
-0.000484431
-0.000538968
-0.000591514
0.000234139
0.000225409
0.000209217
0.000186667
0.000157823
0.00012287
8.23205e-05
3.6538e-05
-1.40955e-05
-6.88518e-05
-0.000126813
-0.000187122
-0.000248954
-0.000311427
-0.000373651
-0.000434816
-0.000494245
-0.000551425
-0.000606041
-0.000658001
0.000224867
0.000214497
0.000195183
0.000168765
0.000136016
9.73183e-05
5.31004e-05
3.79581e-06
-5.00667e-05
-0.000107721
-0.000168267
-0.000230847
-0.000294699
-0.000359091
-0.000423289
-0.000486546
-0.00054812
-0.000607304
-0.00066351
-0.000716362
0.000218229
0.000206986
0.000185383
0.000155781
0.000119771
7.82149e-05
3.15409e-05
-1.99421e-05
-7.57418e-05
-0.000135061
-0.000196963
-0.000260591
-0.000325259
-0.000390416
-0.000455571
-0.000520242
-0.000583891
-0.000645886
-0.000705497
-0.000761968
0.000214621
0.000203367
0.000180834
0.000149462
0.000111316
6.78451e-05
1.97235e-05
-3.28145e-05
-8.93954e-05
-0.000149249
-0.0002114
-0.000274963
-0.000339286
-0.000403925
-0.00046859
-0.000533103
-0.000597352
-0.000661201
-0.000724348
-0.000786202
0.000213633
0.000202731
0.000180197
0.000148567
0.000109962
6.60242e-05
1.75951e-05
-3.50631e-05
-9.1614e-05
-0.000151304
-0.000213133
-0.000276185
-0.000339796
-0.000403539
-0.000467174
-0.000530643
-0.000594088
-0.000657831
-0.000722265
-0.00078761
0.00443327
0.00556537
0.00563691
0.00498724
0.00425611
0.00343221
0.00244086
0.00159575
0.00115558
0.00100038
0.000735812
0.000265995
-5.41267e-05
-0.000272335
-0.000750329
-0.0013355
-0.00186138
-0.00258319
-0.00342976
-0.00409066
-0.00485761
-0.00609725
-0.00724168
-0.00739824
-0.00657593
-0.00554816
-0.00487555
-0.00456481
-0.0044113
-0.00429474
-0.00419316
-0.00410939
-0.00404331
-0.00399583
-0.00396995
-0.00396623
-0.00398128
-0.00400997
-0.0040478
-0.00409165
-0.00413968
-0.00419094
-0.00424507
-0.00430196
-0.00436158
-0.00442391
-0.0044889
-0.0045565
-0.00462662
-0.00469918
-0.00477411
-0.00485135
-0.00493084
-0.00501253
-0.00509637
-0.00518233
-0.0052704
-0.00536053
-0.00545272
-0.00554694
-0.00564319
-0.00574148
-0.00584182
-0.00594419
-0.00604862
-0.0061551
-0.00626366
-0.00637432
-0.0064871
-0.00660203
-0.00671913
-0.00683843
-0.00695997
-0.00708378
-0.00720988
-0.00733832
-0.00746912
-0.00760234
-0.00773799
-0.00787617
-0.00801681
-0.00816015
-0.00830587
-0.00845466
-0.00860546
-0.00876016
-0.00891584
-0.00907703
-0.0092374
-0.00940521
-0.00957099
-0.00974359
-0.00991765
-0.0100902
-0.0102741
-0.0104433
-0.0106229
-0.0107897
-0.0109258
-0.0110489
0.00435715
0.00533431
0.0054139
0.00479697
0.00413502
0.00336337
0.00238616
0.00156336
0.00112821
0.00094589
0.000673059
0.000223322
-8.20133e-05
-0.000302927
-0.000785901
-0.00136355
-0.00188162
-0.00260908
-0.00345455
-0.00408772
-0.00481555
-0.00602894
-0.00716673
-0.00733348
-0.00653276
-0.00552749
-0.0048692
-0.00456359
-0.00441054
-0.00429389
-0.00419289
-0.00410994
-0.00404437
-0.003997
-0.00397094
-0.00396691
-0.00398166
-0.00401013
-0.00404784
-0.00409164
-0.00413965
-0.00419091
-0.00424505
-0.00430195
-0.00436158
-0.00442391
-0.0044889
-0.0045565
-0.00462661
-0.00469918
-0.00477411
-0.00485135
-0.00493084
-0.00501252
-0.00509636
-0.00518233
-0.0052704
-0.00536053
-0.00545271
-0.00554694
-0.00564319
-0.00574148
-0.00584182
-0.00594419
-0.00604862
-0.0061551
-0.00626366
-0.00637432
-0.0064871
-0.00660203
-0.00671913
-0.00683843
-0.00695997
-0.00708378
-0.00720988
-0.00733832
-0.00746912
-0.00760234
-0.00773799
-0.00787617
-0.00801681
-0.00816015
-0.00830587
-0.00845467
-0.00860546
-0.00876016
-0.00891584
-0.00907703
-0.00923739
-0.00940521
-0.00957099
-0.00974359
-0.00991765
-0.0100902
-0.0102741
-0.0104433
-0.0106229
-0.0107897
-0.010926
-0.011049
0.00415471
0.00497139
0.00510707
0.00456299
0.00399745
0.00329439
0.00232773
0.00153305
0.00112059
0.000888747
0.000579596
0.000173032
-0.000100479
-0.000337976
-0.000823474
-0.00139014
-0.00191396
-0.00263795
-0.00345712
-0.00406814
-0.00477282
-0.00593195
-0.00700505
-0.007154
-0.00639621
-0.00545489
-0.00484259
-0.00455696
-0.00440895
-0.00429307
-0.0041926
-0.00411028
-0.00404526
-0.00399831
-0.0039725
-0.00396848
-0.00398304
-0.0040112
-0.00404858
-0.00409211
-0.00413992
-0.00419106
-0.00424512
-0.00430197
-0.00436158
-0.0044239
-0.00448889
-0.00455648
-0.0046266
-0.00469917
-0.0047741
-0.00485134
-0.00493083
-0.00501252
-0.00509636
-0.00518233
-0.00527039
-0.00536053
-0.00545271
-0.00554693
-0.00564319
-0.00574148
-0.00584181
-0.00594419
-0.00604862
-0.0061551
-0.00626366
-0.00637432
-0.0064871
-0.00660203
-0.00671913
-0.00683843
-0.00695997
-0.00708378
-0.00720988
-0.00733832
-0.00746912
-0.00760234
-0.00773799
-0.00787617
-0.00801681
-0.00816015
-0.00830587
-0.00845467
-0.00860546
-0.00876017
-0.00891584
-0.00907703
-0.00923739
-0.00940522
-0.00957099
-0.0097436
-0.00991765
-0.0100902
-0.0102741
-0.0104433
-0.010623
-0.0107898
-0.0109263
-0.0110494
0.00392282
0.0046002
0.00477932
0.00430136
0.00382308
0.00320692
0.00228221
0.00154212
0.00114982
0.000836968
0.000482422
0.000130158
-0.000110379
-0.000359161
-0.000845776
-0.00141544
-0.00193959
-0.00263636
-0.00343327
-0.00404453
-0.00471426
-0.00577354
-0.00675484
-0.00690357
-0.00622844
-0.00538203
-0.00482765
-0.00456113
-0.00441326
-0.00429412
-0.00419242
-0.00411084
-0.00404734
-0.00400175
-0.00397659
-0.00397243
-0.00398626
-0.00401351
-0.00405006
-0.00409295
-0.00414035
-0.00419125
-0.00424519
-0.00430198
-0.00436156
-0.00442387
-0.00448886
-0.00455646
-0.00462658
-0.00469914
-0.00477408
-0.00485132
-0.00493082
-0.0050125
-0.00509635
-0.00518232
-0.00527038
-0.00536052
-0.0054527
-0.00554693
-0.00564318
-0.00574148
-0.00584181
-0.00594419
-0.00604861
-0.0061551
-0.00626366
-0.00637432
-0.0064871
-0.00660203
-0.00671913
-0.00683843
-0.00695997
-0.00708378
-0.00720988
-0.00733831
-0.00746912
-0.00760234
-0.00773799
-0.00787617
-0.00801681
-0.00816015
-0.00830587
-0.00845467
-0.00860546
-0.00876017
-0.00891584
-0.00907703
-0.00923739
-0.00940522
-0.009571
-0.0097436
-0.00991765
-0.0100902
-0.0102741
-0.0104434
-0.0106231
-0.0107898
-0.0109268
-0.0110497
0.0037522
0.00422151
0.00437312
0.00399794
0.00364618
0.00314172
0.00228778
0.00159071
0.00118588
0.000792044
0.000391456
7.96694e-05
-0.000113147
-0.000358014
-0.000863434
-0.00144043
-0.00194286
-0.00261489
-0.00341351
-0.00401627
-0.0046124
-0.0055598
-0.0064832
-0.00667526
-0.0061013
-0.00534274
-0.00483078
-0.00457176
-0.00441862
-0.00429467
-0.00419153
-0.00411055
-0.00404824
-0.00400364
-0.00397895
-0.00397471
-0.00398812
-0.00401483
-0.00405089
-0.00409341
-0.00414057
-0.00419132
-0.00424518
-0.00430194
-0.00436151
-0.00442382
-0.00448881
-0.00455641
-0.00462653
-0.00469911
-0.00477405
-0.00485129
-0.00493079
-0.00501248
-0.00509633
-0.0051823
-0.00527037
-0.00536051
-0.00545269
-0.00554692
-0.00564318
-0.00574147
-0.00584181
-0.00594418
-0.00604861
-0.00615509
-0.00626366
-0.00637431
-0.00648709
-0.00660202
-0.00671913
-0.00683843
-0.00695997
-0.00708377
-0.00720988
-0.00733831
-0.00746912
-0.00760234
-0.00773799
-0.00787617
-0.00801681
-0.00816015
-0.00830587
-0.00845467
-0.00860546
-0.00876017
-0.00891584
-0.00907704
-0.00923739
-0.00940522
-0.009571
-0.00974361
-0.00991766
-0.0100903
-0.0102741
-0.0104435
-0.0106231
-0.0107899
-0.0109272
-0.0110501
0.00359712
0.00381089
0.00392918
0.00373061
0.00352489
0.00309847
0.00229786
0.00163144
0.00122069
0.000765089
0.000309192
2.7638e-05
-0.000114246
-0.000365361
-0.000889244
-0.00145387
-0.00194122
-0.00261303
-0.00340144
-0.00395929
-0.00448166
-0.00536234
-0.0062678
-0.0065018
-0.00599883
-0.00529865
-0.00481499
-0.00456226
-0.00440779
-0.00428324
-0.00418193
-0.00410421
-0.00404539
-0.00400373
-0.00398095
-0.00397751
-0.00399084
-0.00401701
-0.00405239
-0.00409433
-0.00414105
-0.00419153
-0.00424523
-0.00430191
-0.00436144
-0.00442374
-0.00448873
-0.00455634
-0.00462647
-0.00469905
-0.004774
-0.00485125
-0.00493075
-0.00501245
-0.0050963
-0.00518227
-0.00527035
-0.00536049
-0.00545268
-0.0055469
-0.00564316
-0.00574146
-0.0058418
-0.00594418
-0.0060486
-0.00615509
-0.00626365
-0.00637431
-0.00648709
-0.00660202
-0.00671912
-0.00683843
-0.00695997
-0.00708377
-0.00720988
-0.00733831
-0.00746912
-0.00760234
-0.00773799
-0.00787617
-0.00801681
-0.00816015
-0.00830587
-0.00845467
-0.00860546
-0.00876017
-0.00891584
-0.00907704
-0.0092374
-0.00940522
-0.009571
-0.00974362
-0.00991766
-0.0100903
-0.0102741
-0.0104436
-0.0106233
-0.01079
-0.0109277
-0.0110506
0.00340494
0.0034527
0.00355768
0.00349926
0.00340306
0.0030343
0.00229773
0.00168704
0.00126658
0.000734402
0.000231029
-2.76402e-05
-0.000152555
-0.000404524
-0.000906038
-0.00146184
-0.00196828
-0.00262661
-0.00336264
-0.00388095
-0.00437944
-0.00522035
-0.00608329
-0.0063145
-0.00585454
-0.00521016
-0.00476708
-0.00453565
-0.00439144
-0.00427333
-0.00417729
-0.00410372
-0.00404765
-0.00400738
-0.00398488
-0.00398096
-0.00399344
-0.00401873
-0.00405339
-0.00409481
-0.00414122
-0.00419152
-0.00424514
-0.00430178
-0.0043613
-0.00442361
-0.00448862
-0.00455623
-0.00462638
-0.00469897
-0.00477393
-0.00485119
-0.0049307
-0.0050124
-0.00509626
-0.00518224
-0.00527032
-0.00536046
-0.00545266
-0.00554689
-0.00564315
-0.00574145
-0.00584179
-0.00594417
-0.0060486
-0.00615508
-0.00626365
-0.00637431
-0.00648709
-0.00660202
-0.00671912
-0.00683843
-0.00695997
-0.00708377
-0.00720988
-0.00733831
-0.00746912
-0.00760234
-0.00773799
-0.00787617
-0.00801681
-0.00816015
-0.00830587
-0.00845467
-0.00860546
-0.00876017
-0.00891584
-0.00907704
-0.0092374
-0.00940523
-0.009571
-0.00974364
-0.00991767
-0.0100903
-0.0102742
-0.0104437
-0.0106234
-0.0107901
-0.0109282
-0.011051
0.00321113
0.00319457
0.00325466
0.00325608
0.00326514
0.00299161
0.0023281
0.00173122
0.001255
0.000671203
0.000166207
-9.20184e-05
-0.000230262
-0.000456474
-0.000917679
-0.00148422
-0.00200088
-0.00260788
-0.00329721
-0.00382369
-0.00431365
-0.00507508
-0.00585117
-0.00607192
-0.00567681
-0.00511479
-0.00472971
-0.00452604
-0.00439054
-0.00427319
-0.00417608
-0.00410189
-0.00404611
-0.00400679
-0.00398536
-0.00398216
-0.00399488
-0.00402001
-0.00405432
-0.00409537
-0.00414147
-0.00419156
-0.00424506
-0.00430164
-0.00436114
-0.00442345
-0.00448846
-0.00455609
-0.00462625
-0.00469886
-0.00477383
-0.00485111
-0.00493063
-0.00501234
-0.00509621
-0.0051822
-0.00527028
-0.00536043
-0.00545263
-0.00554686
-0.00564313
-0.00574143
-0.00584177
-0.00594416
-0.00604859
-0.00615507
-0.00626364
-0.0063743
-0.00648708
-0.00660202
-0.00671912
-0.00683843
-0.00695997
-0.00708377
-0.00720988
-0.00733831
-0.00746912
-0.00760234
-0.00773799
-0.00787617
-0.00801681
-0.00816015
-0.00830587
-0.00845467
-0.00860546
-0.00876017
-0.00891584
-0.00907704
-0.0092374
-0.00940523
-0.00957101
-0.00974365
-0.00991768
-0.0100904
-0.0102742
-0.0104438
-0.0106236
-0.0107902
-0.0109287
-0.0110515
0.0030186
0.0029569
0.00300742
0.00306613
0.00314055
0.00295069
0.00233119
0.00168805
0.00117597
0.000618829
0.000125795
-0.000161986
-0.000318349
-0.000520064
-0.00094188
-0.0014868
-0.00198296
-0.00256283
-0.00325239
-0.00378826
-0.00422525
-0.00487771
-0.00558618
-0.00583844
-0.00553378
-0.0050525
-0.0047088
-0.00451563
-0.00437805
-0.00425824
-0.00416236
-0.00409226
-0.00404127
-0.00400586
-0.0039868
-0.00398451
-0.00399712
-0.00402168
-0.00405534
-0.00409586
-0.00414159
-0.00419147
-0.00424486
-0.0043014
-0.0043609
-0.00442322
-0.00448825
-0.00455591
-0.00462609
-0.00469872
-0.00477371
-0.004851
-0.00493053
-0.00501226
-0.00509614
-0.00518214
-0.00527023
-0.00536039
-0.00545259
-0.00554683
-0.0056431
-0.00574141
-0.00584175
-0.00594414
-0.00604857
-0.00615506
-0.00626363
-0.00637429
-0.00648708
-0.00660201
-0.00671911
-0.00683842
-0.00695996
-0.00708377
-0.00720987
-0.00733831
-0.00746912
-0.00760234
-0.00773799
-0.00787617
-0.00801681
-0.00816015
-0.00830587
-0.00845467
-0.00860547
-0.00876017
-0.00891585
-0.00907704
-0.0092374
-0.00940524
-0.00957101
-0.00974367
-0.00991769
-0.0100904
-0.0102743
-0.0104439
-0.0106238
-0.0107903
-0.0109292
-0.0110521
0.00276878
0.00272696
0.00286702
0.0029583
0.00298153
0.00283601
0.00228054
0.00159598
0.00107333
0.00057333
9.67531e-05
-0.000212745
-0.000391606
-0.000591091
-0.000954631
-0.00144069
-0.00194167
-0.00254817
-0.0032318
-0.00372792
-0.00409919
-0.00468278
-0.00536598
-0.00565314
-0.00540868
-0.00497398
-0.00465511
-0.00447557
-0.00434887
-0.00423915
-0.00415172
-0.00408755
-0.00404003
-0.00400634
-0.00398801
-0.00398587
-0.00399832
-0.00402255
-0.00405585
-0.00409605
-0.00414155
-0.00419127
-0.00424458
-0.00430109
-0.00436058
-0.00442292
-0.00448799
-0.00455567
-0.00462588
-0.00469853
-0.00477355
-0.00485086
-0.00493042
-0.00501216
-0.00509605
-0.00518206
-0.00527016
-0.00536033
-0.00545255
-0.00554679
-0.00564307
-0.00574138
-0.00584173
-0.00594412
-0.00604856
-0.00615505
-0.00626362
-0.00637428
-0.00648707
-0.006602
-0.00671911
-0.00683842
-0.00695996
-0.00708377
-0.00720987
-0.00733831
-0.00746911
-0.00760234
-0.00773799
-0.00787617
-0.00801681
-0.00816015
-0.00830587
-0.00845467
-0.00860547
-0.00876017
-0.00891585
-0.00907704
-0.00923741
-0.00940524
-0.00957102
-0.00974368
-0.00991771
-0.0100905
-0.0102743
-0.010444
-0.0106241
-0.0107905
-0.0109297
-0.0110527
0.00254191
0.00258805
0.00278521
0.00284855
0.00277931
0.00265758
0.00218351
0.00146701
0.000936776
0.00054265
0.000126688
-0.000222662
-0.000456202
-0.000653716
-0.000955783
-0.00140803
-0.00193809
-0.0025504
-0.00318702
-0.00364567
-0.00399545
-0.00453426
-0.00516739
-0.00544706
-0.00524132
-0.00486061
-0.00458797
-0.00444006
-0.00433077
-0.00422818
-0.00414307
-0.00408031
-0.00403468
-0.00400322
-0.00398688
-0.00398605
-0.00399905
-0.00402327
-0.0040563
-0.00409617
-0.0041414
-0.00419095
-0.00424418
-0.00430067
-0.00436017
-0.00442254
-0.00448765
-0.00455537
-0.00462562
-0.0046983
-0.00477335
-0.00485069
-0.00493026
-0.00501203
-0.00509594
-0.00518197
-0.00527008
-0.00536026
-0.00545249
-0.00554674
-0.00564303
-0.00574135
-0.0058417
-0.00594409
-0.00604853
-0.00615503
-0.0062636
-0.00637427
-0.00648706
-0.006602
-0.0067191
-0.00683841
-0.00695996
-0.00708376
-0.00720987
-0.00733831
-0.00746911
-0.00760233
-0.00773799
-0.00787617
-0.00801681
-0.00816015
-0.00830587
-0.00845467
-0.00860547
-0.00876017
-0.00891585
-0.00907705
-0.00923741
-0.00940525
-0.00957103
-0.00974371
-0.00991774
-0.0100905
-0.0102744
-0.0104441
-0.0106244
-0.0107907
-0.0109302
-0.0110533
0.00241657
0.00248889
0.00263968
0.00268257
0.00257841
0.00243932
0.00200486
0.00131029
0.00084905
0.000588172
0.000191268
-0.000248858
-0.00052348
-0.000704759
-0.000995144
-0.00144055
-0.00194483
-0.00251014
-0.00311878
-0.00358532
-0.00391562
-0.00437082
-0.00492703
-0.00521149
-0.005075
-0.00476667
-0.00453818
-0.0044094
-0.00430644
-0.00420661
-0.00412524
-0.00406769
-0.00402722
-0.0039997
-0.00398579
-0.00398613
-0.00399947
-0.00402358
-0.00405635
-0.00409596
-0.004141
-0.00419044
-0.00424362
-0.00430011
-0.00435965
-0.00442206
-0.00448722
-0.00455499
-0.00462528
-0.00469801
-0.00477309
-0.00485047
-0.00493008
-0.00501187
-0.0050958
-0.00518185
-0.00526998
-0.00536018
-0.00545241
-0.00554668
-0.00564298
-0.0057413
-0.00584166
-0.00594406
-0.00604851
-0.00615501
-0.00626358
-0.00637426
-0.00648705
-0.00660199
-0.00671909
-0.00683841
-0.00695995
-0.00708376
-0.00720986
-0.0073383
-0.00746911
-0.00760233
-0.00773799
-0.00787616
-0.00801681
-0.00816015
-0.00830587
-0.00845467
-0.00860547
-0.00876017
-0.00891585
-0.00907705
-0.00923742
-0.00940526
-0.00957104
-0.00974373
-0.00991777
-0.0100906
-0.0102745
-0.0104443
-0.0106247
-0.0107909
-0.0109307
-0.0110539
0.00233677
0.00236583
0.00242922
0.00246513
0.00238913
0.00221467
0.001776
0.00118485
0.000855043
0.000646477
0.000199341
-0.000298206
-0.000580701
-0.000777738
-0.00108578
-0.00148681
-0.00191255
-0.00243551
-0.00304968
-0.00352387
-0.00381088
-0.00418391
-0.00469529
-0.00501028
-0.00493775
-0.0046764
-0.00447134
-0.00435751
-0.00426817
-0.00417987
-0.00410723
-0.00405597
-0.00401988
-0.00399528
-0.0039833
-0.00398488
-0.00399886
-0.0040232
-0.00405594
-0.00409543
-0.00414036
-0.00418973
-0.00424289
-0.0042994
-0.00435899
-0.00442146
-0.00448668
-0.00455452
-0.00462487
-0.00469765
-0.00477278
-0.0048502
-0.00492984
-0.00501167
-0.00509563
-0.0051817
-0.00526986
-0.00536007
-0.00545232
-0.0055466
-0.00564291
-0.00574125
-0.00584162
-0.00594402
-0.00604847
-0.00615498
-0.00626356
-0.00637424
-0.00648703
-0.00660197
-0.00671908
-0.0068384
-0.00695994
-0.00708375
-0.00720986
-0.0073383
-0.00746911
-0.00760233
-0.00773798
-0.00787616
-0.0080168
-0.00816015
-0.00830587
-0.00845467
-0.00860547
-0.00876018
-0.00891586
-0.00907706
-0.00923742
-0.00940527
-0.00957106
-0.00974376
-0.00991781
-0.0100907
-0.0102747
-0.0104444
-0.010625
-0.0107912
-0.0109311
-0.0110546
0.00230269
0.0022378
0.00217298
0.00219188
0.00219499
0.00201543
0.00155256
0.00108699
0.000894674
0.000670543
0.00015125
-0.000367709
-0.000655959
-0.000865772
-0.0011501
-0.00149209
-0.00186894
-0.00236212
-0.00296294
-0.00344219
-0.00371721
-0.00403623
-0.00449699
-0.00481396
-0.00478189
-0.00456234
-0.00438934
-0.00430159
-0.00423161
-0.0041545
-0.00408786
-0.00404111
-0.00400922
-0.00398828
-0.00397909
-0.00398249
-0.00399748
-0.00402223
-0.00405506
-0.00409452
-0.0041394
-0.00418875
-0.00424193
-0.00429849
-0.00435816
-0.00442072
-0.00448602
-0.00455393
-0.00462436
-0.00469721
-0.0047724
-0.00484987
-0.00492956
-0.00501142
-0.00509542
-0.00518152
-0.0052697
-0.00535994
-0.00545221
-0.00554651
-0.00564283
-0.00574118
-0.00584156
-0.00594398
-0.00604843
-0.00615495
-0.00626353
-0.00637421
-0.00648701
-0.00660196
-0.00671907
-0.00683839
-0.00695994
-0.00708375
-0.00720985
-0.0073383
-0.0074691
-0.00760233
-0.00773798
-0.00787616
-0.0080168
-0.00816015
-0.00830587
-0.00845467
-0.00860547
-0.00876018
-0.00891586
-0.00907706
-0.00923743
-0.00940528
-0.00957107
-0.00974379
-0.00991786
-0.0100908
-0.0102748
-0.0104446
-0.0106254
-0.0107915
-0.0109316
-0.0110554
0.00224323
0.00204117
0.00186799
0.00191201
0.00199542
0.00184053
0.00139539
0.00102455
0.000905813
0.000626767
3.25111e-05
-0.000467308
-0.00070228
-0.000888565
-0.00116046
-0.00149399
-0.00185714
-0.00230537
-0.00286975
-0.00336698
-0.00365014
-0.00390166
-0.00428228
-0.00459416
-0.00461836
-0.00445433
-0.00431354
-0.00424531
-0.00418962
-0.00412232
-0.00406277
-0.0040224
-0.00399624
-0.00397975
-0.00397361
-0.00397895
-0.00399507
-0.00402042
-0.00405352
-0.00409309
-0.00413803
-0.00418744
-0.0042407
-0.00429736
-0.00435713
-0.0044198
-0.00448521
-0.00455322
-0.00462374
-0.00469667
-0.00477193
-0.00484947
-0.00492921
-0.00501112
-0.00509516
-0.0051813
-0.00526952
-0.00535978
-0.00545208
-0.0055464
-0.00564274
-0.0057411
-0.00584149
-0.00594392
-0.00604839
-0.00615491
-0.0062635
-0.00637419
-0.00648699
-0.00660194
-0.00671906
-0.00683838
-0.00695993
-0.00708374
-0.00720985
-0.00733829
-0.0074691
-0.00760233
-0.00773798
-0.00787616
-0.0080168
-0.00816015
-0.00830587
-0.00845467
-0.00860547
-0.00876018
-0.00891587
-0.00907707
-0.00923744
-0.0094053
-0.0095711
-0.00974382
-0.00991792
-0.0100908
-0.010275
-0.0104448
-0.0106258
-0.0107918
-0.0109321
-0.0110561
0.00203715
0.00182418
0.00165012
0.0017145
0.00179106
0.00167483
0.00132434
0.000961534
0.000779922
0.000478352
-7.95953e-05
-0.000498335
-0.000670957
-0.000874808
-0.00118895
-0.00153201
-0.00187773
-0.00227318
-0.00277663
-0.00326632
-0.00355819
-0.00375957
-0.00407403
-0.00438818
-0.00446903
-0.00435154
-0.00423107
-0.00417721
-0.00413835
-0.0040852
-0.00403508
-0.0040016
-0.00398114
-0.00396911
-0.0039662
-0.00397379
-0.0039914
-0.00401764
-0.00405123
-0.00409108
-0.0041362
-0.00418575
-0.00423914
-0.00429595
-0.00435586
-0.00441868
-0.00448422
-0.00455236
-0.00462298
-0.00469601
-0.00477137
-0.00484898
-0.00492879
-0.00501076
-0.00509485
-0.00518104
-0.00526929
-0.00535959
-0.00545191
-0.00554626
-0.00564262
-0.005741
-0.00584141
-0.00594385
-0.00604833
-0.00615486
-0.00626346
-0.00637415
-0.00648696
-0.00660192
-0.00671904
-0.00683836
-0.00695991
-0.00708373
-0.00720984
-0.00733828
-0.00746909
-0.00760232
-0.00773798
-0.00787616
-0.0080168
-0.00816015
-0.00830587
-0.00845467
-0.00860548
-0.00876019
-0.00891587
-0.00907708
-0.00923745
-0.00940531
-0.00957112
-0.00974386
-0.00991799
-0.0100909
-0.0102752
-0.010445
-0.0106262
-0.0107922
-0.0109326
-0.0110569
0.00181407
0.00175662
0.00158031
0.00154199
0.00153145
0.00147182
0.00126581
0.000858207
0.000543047
0.000319684
-7.48939e-05
-0.000451776
-0.000657163
-0.000910704
-0.0012579
-0.00158442
-0.0018938
-0.00223456
-0.00266195
-0.00312863
-0.00345583
-0.00364915
-0.00390125
-0.00419152
-0.00431138
-0.00423915
-0.00414165
-0.00410378
-0.00408323
-0.00404509
-0.00400422
-0.00397734
-0.00396283
-0.00395586
-0.00395673
-0.00396697
-0.00398636
-0.00401375
-0.00404806
-0.00408836
-0.00413379
-0.00418359
-0.0042372
-0.00429421
-0.00435432
-0.00441731
-0.00448302
-0.00455131
-0.00462207
-0.00469522
-0.00477068
-0.00484839
-0.00492829
-0.00501033
-0.00509448
-0.00518072
-0.00526902
-0.00535936
-0.00545172
-0.00554609
-0.00564248
-0.00574088
-0.00584131
-0.00594377
-0.00604826
-0.0061548
-0.00626341
-0.00637411
-0.00648693
-0.00660189
-0.00671902
-0.00683834
-0.0069599
-0.00708372
-0.00720983
-0.00733828
-0.00746909
-0.00760232
-0.00773797
-0.00787616
-0.0080168
-0.00816014
-0.00830588
-0.00845468
-0.00860548
-0.00876019
-0.00891588
-0.00907708