/*--------------------------------*- C++ -*----------------------------------*\
  =========                 |
  \\      /  F ield         | OpenFOAM: The Open Source CFD Toolbox
   \\    /   O peration     | Website:  https://openfoam.org
    \\  /    A nd           | Version:  6
     \\/     M anipulation  |
\*---------------------------------------------------------------------------*/
FoamFile
{
    version     2.0;
    format      ascii;
    class       surfaceScalarField;
    location    "0.1";
    object      phi;
}
// * * * * * * * * * * * * * * * * * * * * * * * * * * * * * * * * * * * * * //

dimensions      [0 3 -1 0 0 0 0];

internalField   nonuniform List<scalar> 
9440
(
3.91444e-06
-1.06708e-07
3.85462e-06
5.20007e-08
3.88174e-06
1.63194e-07
3.88573e-06
-2.24783e-07
3.8657e-06
5.95292e-08
3.86025e-06
1.28851e-07
3.88138e-06
-1.94953e-08
3.87827e-06
-1.24576e-07
3.87239e-06
-1.43416e-08
3.86104e-06
6.89975e-08
3.86639e-06
6.64332e-08
3.8688e-06
4.41453e-09
3.87566e-06
-4.91462e-08
3.87402e-06
-4.44043e-08
3.86998e-06
-3.51404e-08
3.86494e-06
4.33912e-09
3.86593e-06
3.45375e-08
3.86663e-06
2.44913e-08
3.87197e-06
6.54248e-09
-1.10245e-08
3.81784e-06
4.19944e-06
-1.20284e-07
4.17989e-06
7.15449e-08
4.18755e-06
1.55533e-07
4.18789e-06
-2.25118e-07
4.17612e-06
7.12984e-08
4.1809e-06
1.24067e-07
4.1869e-06
-2.54916e-08
4.18312e-06
-1.208e-07
4.17761e-06
-8.82392e-09
4.17735e-06
6.92573e-08
4.18022e-06
6.35586e-08
4.1826e-06
2.03562e-09
4.18114e-06
-4.76857e-08
4.18033e-06
-4.35911e-08
4.17425e-06
-2.90686e-08
4.17324e-06
5.35236e-09
4.17464e-06
3.31366e-08
4.17677e-06
2.2368e-08
4.17151e-06
1.17989e-08
3.17058e-08
4.12878e-06
4.51827e-06
-1.18491e-07
4.52049e-06
6.93239e-08
4.52306e-06
1.52961e-07
4.51571e-06
-2.17762e-07
4.51567e-06
7.13319e-08
4.52122e-06
1.18524e-07
4.52296e-06
-2.7234e-08
4.51312e-06
-1.10957e-07
4.51259e-06
-8.29813e-09
4.51438e-06
6.74648e-08
4.521e-06
5.69445e-08
4.51955e-06
3.48382e-09
4.51546e-06
-4.36015e-08
4.51219e-06
-4.03134e-08
4.50731e-06
-2.41923e-08
4.5064e-06
6.265e-09
4.50987e-06
2.96596e-08
4.51031e-06
2.19306e-08
4.49757e-06
2.45428e-08
5.69133e-08
4.47236e-06
4.87481e-06
-1.12358e-07
4.88226e-06
6.18787e-08
4.88501e-06
1.50215e-07
4.87437e-06
-2.07128e-07
4.87873e-06
6.69706e-08
4.88389e-06
1.13369e-07
4.88485e-06
-2.81988e-08
4.87259e-06
-9.86925e-08
4.87413e-06
-9.84524e-09
4.87621e-06
6.5393e-08
4.88375e-06
4.93968e-08
4.88135e-06
5.89296e-09
4.87597e-06
-3.82216e-08
4.87239e-06
-3.67413e-08
4.86791e-06
-1.97117e-08
4.86722e-06
6.9557e-09
4.86931e-06
2.75682e-08
4.86649e-06
2.47572e-08
4.85232e-06
3.87142e-08
6.51831e-08
4.84405e-06
5.26364e-06
-1.05356e-07
5.27188e-06
5.36401e-08
5.27509e-06
1.47011e-07
5.26354e-06
-1.95581e-07
5.26887e-06
6.16454e-08
5.27362e-06
1.08611e-07
5.27477e-06
-2.93477e-08
5.26217e-06
-8.60861e-08
5.26375e-06
-1.14263e-08
5.26603e-06
6.31136e-08
5.27306e-06
4.23582e-08
5.27112e-06
7.83328e-09
5.26536e-06
-3.24562e-08
5.26169e-06
-3.3068e-08
5.25748e-06
-1.5507e-08
5.25612e-06
8.31697e-09
5.25598e-06
2.77071e-08
5.25043e-06
3.03095e-08
5.2399e-06
4.9243e-08
6.14437e-08
5.24364e-06
5.68416e-06
-9.80593e-08
5.69255e-06
4.52511e-08
5.69616e-06
1.43399e-07
5.68394e-06
-1.83356e-07
5.68996e-06
5.56221e-08
5.6941e-06
1.04477e-07
5.69558e-06
-3.08293e-08
5.68307e-06
-7.35815e-08
5.68385e-06
-1.22074e-08
5.68755e-06
5.94163e-08
5.69271e-06
3.72001e-08
5.69188e-06
8.65908e-09
5.68591e-06
-2.64806e-08
5.68145e-06
-2.86068e-08
5.67772e-06
-1.17755e-08
5.67587e-06
1.0161e-08
5.67369e-06
2.98864e-08
5.66714e-06
3.6862e-08
5.66244e-06
5.39464e-08
5.20215e-08
5.67186e-06
6.13839e-06
-9.05784e-08
6.14679e-06
3.68553e-08
6.15076e-06
1.39424e-07
6.13803e-06
-1.7062e-07
6.14473e-06
4.89161e-08
6.14791e-06
1.01294e-07
6.14991e-06
-3.28275e-08
6.13775e-06
-6.1422e-08
6.1376e-06
-1.2053e-08
6.14292e-06
5.40987e-08
6.14527e-06
3.48428e-08
6.14607e-06
7.86221e-09
6.14029e-06
-2.06961e-08
6.13471e-06
-2.30342e-08
6.13153e-06
-8.59407e-09
6.12912e-06
1.25741e-08
6.12515e-06
3.38578e-08
6.11948e-06
4.25329e-08
6.12066e-06
5.276e-08
4.23177e-08
6.13037e-06
6.62896e-06
-8.29774e-08
6.6372e-06
2.86202e-08
6.6417e-06
1.34918e-07
6.62844e-06
-1.5736e-07
6.63559e-06
4.17713e-08
6.63819e-06
9.86867e-08
6.64042e-06
-3.50577e-08
6.62883e-06
-4.98267e-08
6.62756e-06
-1.07874e-08
6.6341e-06
4.75596e-08
6.63459e-06
3.43591e-08
6.63651e-06
5.94088e-09
6.63089e-06
-1.50818e-08
6.62421e-06
-1.63537e-08
6.62098e-06
-5.35957e-09
6.61807e-06
1.54802e-08
6.61382e-06
3.81138e-08
6.61077e-06
4.55836e-08
6.61583e-06
4.76973e-08
3.60641e-08
6.62208e-06
7.15876e-06
-7.53118e-08
7.16672e-06
2.06684e-08
7.17187e-06
1.29764e-07
7.15795e-06
-1.43439e-07
7.16564e-06
3.40771e-08
7.16793e-06
9.6399e-08
7.1695e-06
-3.66228e-08
7.15941e-06
-3.97397e-08
7.1568e-06
-8.18128e-09
7.16407e-06
4.02928e-08
7.16404e-06
3.43848e-08
7.16513e-06
4.85224e-09
7.16e-06
-9.94795e-09
7.15338e-06
-9.73122e-09
7.14954e-06
-1.52547e-09
7.14642e-06
1.86033e-08
7.14344e-06
4.10898e-08
7.14289e-06
4.61415e-08
7.14821e-06
4.23686e-08
3.40543e-08
7.15022e-06
7.73095e-06
-6.76567e-08
7.73847e-06
1.31444e-08
7.74433e-06
1.2391e-07
7.72983e-06
-1.28939e-07
7.73802e-06
2.58872e-08
7.73993e-06
9.44855e-08
7.74055e-06
-3.72451e-08
7.7329e-06
-3.20885e-08
7.72823e-06
-3.51355e-09
7.73573e-06
3.27972e-08
7.73641e-06
3.37054e-08
7.73532e-06
5.94047e-09
7.73143e-06
-6.05834e-09
7.72578e-06
-4.08066e-09
7.72042e-06
3.83836e-09
7.71692e-06
2.21035e-08
7.71608e-06
4.19274e-08
7.71729e-06
4.49292e-08
7.72092e-06
3.87378e-08
3.45612e-08
7.72041e-06
8.3489e-06
-6.0095e-08
8.35583e-06
6.21342e-09
8.36247e-06
1.17275e-07
8.3475e-06
-1.13974e-07
8.35584e-06
1.75464e-08
8.35778e-06
9.25458e-08
8.35734e-06
-3.68002e-08
8.35191e-06
-2.66659e-08
8.34529e-06
3.10969e-09
8.35288e-06
2.52051e-08
8.35487e-06
3.17151e-08
8.35125e-06
9.56262e-09
8.34822e-06
-3.03162e-09
8.34357e-06
5.77758e-10
8.33694e-06
1.04634e-08
8.3336e-06
2.54458e-08
8.33519e-06
4.03401e-08
8.33752e-06
4.25918e-08
8.33866e-06
3.76032e-08
3.68604e-08
8.33636e-06
9.01627e-06
-5.27129e-08
9.02245e-06
2.37947e-11
9.02991e-06
1.09816e-07
9.0146e-06
-9.86601e-08
9.0228e-06
9.34702e-09
9.02531e-06
9.00366e-08
9.0232e-06
-3.46943e-08
9.01975e-06
-2.32124e-08
9.0126e-06
1.02612e-08
9.0192e-06
1.86044e-08
9.02208e-06
2.88324e-08
9.01682e-06
1.48213e-08
9.01388e-06
-8.90426e-11
9.01037e-06
4.08634e-09
9.00405e-06
1.6781e-08
9.00106e-06
2.84342e-08
9.0035e-06
3.79007e-08
9.00558e-06
4.05139e-08
9.00434e-06
3.88403e-08
3.97738e-08
9.00143e-06
9.73699e-06
-4.56021e-08
9.7423e-06
-5.28905e-09
9.75056e-06
1.01563e-07
9.73512e-06
-8.32249e-08
9.74286e-06
1.60988e-09
9.74624e-06
8.66565e-08
9.74216e-06
-3.06117e-08
9.7407e-06
-2.17543e-08
9.73406e-06
1.69014e-08
9.73791e-06
1.47542e-08
9.74175e-06
2.49969e-08
9.73691e-06
1.9659e-08
9.73305e-06
3.7644e-09
9.73009e-06
7.05156e-09
9.72511e-06
2.17642e-08
9.72219e-06
3.13499e-08
9.72373e-06
3.63589e-08
9.72523e-06
3.90186e-08
9.72386e-06
4.0212e-08
4.1654e-08
9.72197e-06
1.05153e-05
-3.88541e-08
1.05197e-05
-9.61083e-09
1.05286e-05
9.25934e-08
1.05134e-05
-6.79802e-08
1.05202e-05
-5.23845e-09
1.05247e-05
8.21587e-08
1.05189e-05
-2.47656e-08
1.05188e-05
-2.17085e-08
1.05132e-05
2.2565e-08
1.05139e-05
1.40317e-08
1.05189e-05
1.99484e-08
1.05155e-05
2.31068e-08
1.05095e-05
9.72302e-09
1.05064e-05
1.02167e-08
1.05037e-05
2.44182e-08
1.05015e-05
3.35812e-08
1.05016e-05
3.61966e-08
1.05026e-05
3.80932e-08
1.0502e-05
4.07423e-08
4.27746e-08
1.05009e-05
1.13559e-05
-3.25546e-08
1.13591e-05
-1.2865e-08
1.13687e-05
8.30524e-08
1.1354e-05
-5.32761e-08
1.13595e-05
-1.07924e-08
1.13653e-05
7.63547e-08
1.13581e-05
-1.75319e-08
1.13584e-05
-2.20267e-08
1.13545e-05
2.6504e-08
1.13528e-05
1.56724e-08
1.13579e-05
1.48825e-08
1.13556e-05
2.53943e-08
1.13482e-05
1.71401e-08
1.13452e-05
1.32265e-08
1.13451e-05
2.45368e-08
1.13435e-05
3.51065e-08
1.13418e-05
3.79145e-08
1.13414e-05
3.85166e-08
1.13414e-05
4.07807e-08
4.25749e-08
1.13416e-05
1.22636e-05
-2.67789e-08
1.22657e-05
-1.50217e-08
1.22756e-05
7.31525e-08
1.22618e-05
-3.94907e-08
1.22658e-05
-1.47415e-08
1.22729e-05
6.92856e-08
1.22647e-05
-9.42724e-09
1.22646e-05
-2.18427e-08
1.22629e-05
2.8116e-08
1.22596e-05
1.90133e-08
1.2263e-05
1.15247e-08
1.22622e-05
2.62062e-08
1.22554e-05
2.38555e-08
1.22523e-05
1.63196e-08
1.22528e-05
2.40783e-08
1.22513e-05
3.66203e-08
1.22484e-05
4.07922e-08
1.22475e-05
3.94457e-08
1.22487e-05
3.95945e-08
4.03737e-08
1.22509e-05
1.32437e-05
-2.15866e-08
1.32448e-05
-1.61036e-08
1.32548e-05
6.31622e-08
1.32423e-05
-2.69949e-08
1.32445e-05
-1.68932e-08
1.32525e-05
6.12295e-08
1.32443e-05
-1.17166e-09
1.3243e-05
-2.05503e-08
1.32435e-05
2.75549e-08
1.32392e-05
2.33079e-08
1.32403e-05
1.04959e-08
1.32412e-05
2.52429e-08
1.32363e-05
2.88118e-08
1.3232e-05
2.06324e-08
1.32313e-05
2.47753e-08
1.32306e-05
3.7325e-08
1.32289e-05
4.24502e-08
1.32287e-05
3.96133e-08
1.32303e-05
3.80275e-08
3.8506e-08
1.32322e-05
1.43022e-05
-1.70168e-08
1.43023e-05
-1.61887e-08
1.4312e-05
5.33844e-08
1.43011e-05
-1.61032e-08
1.43015e-05
-1.72135e-08
1.43101e-05
5.26306e-08
1.43024e-05
6.47946e-09
1.42996e-05
-1.77656e-08
1.43017e-05
2.54801e-08
1.42976e-05
2.74456e-08
1.42965e-05
1.15868e-08
1.42983e-05
2.34037e-08
1.42949e-05
3.21702e-08
1.42896e-05
2.595e-08
1.42881e-05
2.62699e-08
1.42892e-05
3.62822e-08
1.42894e-05
4.2278e-08
1.42889e-05
4.0083e-08
1.42888e-05
3.81283e-08
3.81709e-08
1.42891e-05
1.54451e-05
-1.30849e-08
1.54443e-05
-1.54062e-08
1.54535e-05
4.41305e-08
1.54445e-05
-7.03212e-09
1.54431e-05
-1.58486e-08
1.54517e-05
4.40401e-08
1.54453e-05
1.29209e-08
1.54409e-05
-1.34597e-08
1.54437e-05
2.26813e-08
1.54407e-05
3.04929e-08
1.54379e-05
1.44216e-08
1.54393e-05
2.19866e-08
1.54375e-05
3.39266e-08
1.54327e-05
3.07316e-08
1.5431e-05
2.80144e-08
1.54326e-05
3.46864e-08
1.54332e-05
4.16919e-08
1.54318e-05
4.14221e-08
1.5431e-05
3.90012e-08
3.7626e-08
1.54315e-05
1.66792e-05
-9.78124e-09
1.66777e-05
-1.39269e-08
1.66861e-05
3.56881e-08
1.6679e-05
1.27596e-10
1.66762e-05
-1.31051e-08
1.66842e-05
3.60311e-08
1.66794e-05
1.77822e-08
1.66739e-05
-7.98043e-09
1.66766e-05
1.99547e-08
1.6675e-05
3.20952e-08
1.66711e-05
1.83565e-08
1.66715e-05
2.16071e-08
1.66713e-05
3.41057e-08
1.66679e-05
3.41053e-08
1.66656e-05
3.02967e-08
1.66662e-05
3.40621e-08
1.6667e-05
4.09466e-08
1.66665e-05
4.1952e-08
1.66666e-05
3.89028e-08
3.66109e-08
1.66676e-05
1.80117e-05
-7.07223e-09
1.80097e-05
-1.19472e-08
1.80171e-05
2.82899e-08
1.80118e-05
5.42371e-09
1.80081e-05
-9.40136e-09
1.8015e-05
2.90948e-08
1.80119e-05
2.09624e-08
1.80058e-05
-1.90352e-09
1.80078e-05
1.79617e-08
1.80075e-05
3.23577e-08
1.80034e-05
2.24827e-08
1.80027e-05
2.2308e-08
1.80034e-05
3.33707e-08
1.80014e-05
3.61571e-08
1.79987e-05
3.29323e-08
1.79985e-05
3.42531e-08
1.80001e-05
3.94128e-08
1.8001e-05
4.10198e-08
1.80015e-05
3.84658e-08
3.63328e-08
1.80017e-05
1.94505e-05
-4.90416e-09
1.94482e-05
-9.67069e-09
1.94544e-05
2.20884e-08
1.94508e-05
9.03307e-09
1.94466e-05
-5.20354e-09
1.94522e-05
2.35587e-08
1.94505e-05
2.26187e-08
1.94445e-05
4.14117e-09
1.94454e-05
1.70548e-08
1.94461e-05
3.16453e-08
1.94425e-05
2.60318e-08
1.94409e-05
2.39086e-08
1.94418e-05
3.25373e-08
1.94409e-05
3.70445e-08
1.94388e-05
3.50507e-08
1.94384e-05
3.45921e-08
1.94402e-05
3.76562e-08
1.94414e-05
3.9755e-08
1.94415e-05
3.84615e-08
3.65107e-08
1.94413e-05
2.10041e-05
-3.2087e-09
2.10017e-05
-7.28894e-09
2.10067e-05
1.71422e-08
2.10045e-05
1.12316e-08
2.10002e-05
-9.55593e-10
2.10042e-05
1.95466e-08
2.10038e-05
2.30933e-08
2.09983e-05
9.60648e-09
2.09981e-05
1.72399e-08
2.09993e-05
3.04493e-08
2.09967e-05
2.86158e-08
2.09946e-05
2.60094e-08
2.09952e-05
3.19933e-08
2.09953e-05
3.69259e-08
2.09941e-05
3.62036e-08
2.09937e-05
3.50294e-08
2.09948e-05
3.65659e-08
2.09959e-05
3.86118e-08
2.09963e-05
3.80751e-08
3.58727e-08
2.0997e-05
2.26816e-05
-1.9098e-09
2.26793e-05
-4.96531e-09
2.2683e-05
1.34156e-08
2.26819e-05
1.23502e-08
2.2678e-05
2.97939e-09
2.26805e-05
1.69831e-08
2.26808e-05
2.28058e-08
2.26763e-05
1.41249e-08
2.26753e-05
1.82665e-08
2.26765e-05
2.92238e-08
2.2675e-05
3.01664e-08
2.26729e-05
2.80819e-08
2.26731e-05
3.17843e-08
2.26738e-05
3.62135e-08
2.26735e-05
3.65526e-08
2.2673e-05
3.54766e-08
2.26737e-05
3.59209e-08
2.26751e-05
3.71383e-08
2.26765e-05
3.67267e-08
3.45898e-08
2.26778e-05
2.4493e-05
-9.308e-10
2.44908e-05
-2.82388e-09
2.44935e-05
1.07914e-08
2.44931e-05
1.27257e-08
2.44897e-05
6.35465e-09
2.4491e-05
1.56356e-08
2.44917e-05
2.21495e-08
2.44883e-05
1.75436e-08
2.44868e-05
1.97534e-08
2.44878e-05
2.82475e-08
2.44871e-05
3.08206e-08
2.44855e-05
2.97141e-08
2.44854e-05
3.18224e-08
2.44863e-05
3.53176e-08
2.44866e-05
3.62689e-08
2.44866e-05
3.54984e-08
2.44874e-05
3.51598e-08
2.4489e-05
3.54675e-08
2.44906e-05
3.5128e-08
3.3515e-08
2.44917e-05
2.64488e-05
-2.00758e-10
2.6447e-05
-9.45419e-10
2.64487e-05
9.09321e-09
2.64487e-05
1.26569e-08
2.6446e-05
9.04705e-09
2.64465e-05
1.51801e-08
2.64472e-05
2.14183e-08
2.64449e-05
1.98935e-08
2.64433e-05
2.13088e-08
2.6444e-05
2.75933e-08
2.6444e-05
3.08195e-08
2.6443e-05
3.0711e-08
2.64429e-05
3.1909e-08
2.64438e-05
3.43782e-08
2.64447e-05
3.54393e-08
2.64452e-05
3.4932e-08
2.64461e-05
3.42579e-08
2.64476e-05
3.40254e-08
2.6449e-05
3.36427e-08
3.22722e-08
2.64503e-05
2.85608e-05
3.40946e-10
2.85592e-05
6.29901e-10
2.85602e-05
8.11331e-09
2.85605e-05
1.2374e-08
2.85585e-05
1.10394e-08
2.85584e-05
1.52706e-08
2.8559e-05
2.07735e-08
2.85576e-05
2.132e-08
2.85563e-05
2.2619e-08
2.85567e-05
2.71788e-08
2.85571e-05
3.03941e-08
2.85568e-05
3.10357e-08
2.85569e-05
3.18043e-08
2.85579e-05
3.33805e-08
2.85591e-05
3.42496e-08
2.85601e-05
3.394e-08
2.85611e-05
3.32168e-08
2.85625e-05
3.26272e-08
2.85642e-05
3.19667e-08
3.05837e-08
2.85659e-05
3.08413e-05
7.42019e-10
3.084e-05
1.8944e-09
3.08405e-05
7.63869e-09
3.08408e-05
1.20248e-08
3.08395e-05
1.23865e-08
3.08392e-05
1.5594e-08
3.08397e-05
2.02509e-08
3.0839e-05
2.20078e-08
3.08381e-05
2.34874e-08
3.08385e-05
2.68378e-08
3.08392e-05
2.96893e-08
3.08395e-05
3.07464e-08
3.08399e-05
3.13509e-08
3.0841e-05
3.22798e-08
3.08424e-05
3.28471e-08
3.08438e-05
3.26028e-08
3.08451e-05
3.18693e-08
3.08467e-05
3.10387e-08
3.08485e-05
3.01491e-08
2.87996e-08
3.08503e-05
3.33038e-05
1.03672e-09
3.33028e-05
2.86187e-09
3.3303e-05
7.47205e-09
3.33034e-05
1.16772e-08
3.33026e-05
1.31771e-08
3.33023e-05
1.59021e-08
3.33027e-05
1.97941e-08
3.33026e-05
2.21225e-08
3.33023e-05
2.38251e-08
3.33027e-05
2.63891e-08
3.33036e-05
2.87586e-08
3.33044e-05
2.99427e-08
3.33053e-05
3.04863e-08
3.33066e-05
3.09938e-08
3.33082e-05
3.1249e-08
3.33098e-05
3.09526e-08
3.33115e-05
3.02132e-08
3.33132e-05
2.92902e-08
3.33151e-05
2.82927e-08
2.6953e-08
3.3317e-05
3.59629e-05
1.24699e-09
3.59622e-05
3.55625e-09
3.59623e-05
7.44472e-09
3.59626e-05
1.13342e-08
3.59623e-05
1.35004e-08
3.59622e-05
1.60203e-08
3.59627e-05
1.9297e-08
3.5963e-05
2.17791e-08
3.59632e-05
2.36176e-08
3.59639e-05
2.56842e-08
3.59651e-05
2.75909e-08
3.59663e-05
2.8711e-08
3.59676e-05
2.92001e-08
3.59691e-05
2.94432e-08
3.5971e-05
2.94416e-08
3.59728e-05
2.90546e-08
3.59747e-05
2.83136e-08
3.59767e-05
2.73672e-08
3.59787e-05
2.63132e-08
2.49684e-08
3.59806e-05
3.88343e-05
1.38458e-09
3.88339e-05
4.00224e-09
3.88339e-05
7.42152e-09
3.88343e-05
1.09542e-08
3.88344e-05
1.34251e-08
3.88345e-05
1.58388e-08
3.88352e-05
1.8642e-08
3.88359e-05
2.10367e-08
3.88367e-05
2.28872e-08
3.88377e-05
2.46238e-08
3.88392e-05
2.61423e-08
3.88408e-05
2.71022e-08
3.88425e-05
2.75119e-08
3.88443e-05
2.7589e-08
3.88464e-05
2.74077e-08
3.88485e-05
2.69344e-08
3.88506e-05
2.61846e-08
3.88527e-05
2.52422e-08
3.88549e-05
2.41846e-08
2.28767e-08
3.88569e-05
4.1935e-05
1.45368e-09
4.19347e-05
4.21906e-09
4.19349e-05
7.29936e-09
4.19353e-05
1.04722e-08
4.19358e-05
1.29908e-08
4.19363e-05
1.52943e-08
4.19372e-05
1.77244e-08
4.19384e-05
1.99102e-08
4.19396e-05
2.16637e-08
4.19411e-05
2.31521e-08
4.19428e-05
2.4363e-08
4.19448e-05
2.51367e-08
4.19469e-05
2.54497e-08
4.1949e-05
2.54184e-08
4.19513e-05
2.51243e-08
4.19537e-05
2.45894e-08
4.1956e-05
2.38383e-08
4.19583e-05
2.29264e-08
4.19606e-05
2.19101e-08
2.06754e-08
4.19628e-05
4.52832e-05
1.4535e-09
4.52832e-05
4.21769e-09
4.52835e-05
7.00215e-09
4.52841e-05
9.81666e-09
4.52849e-05
1.22099e-08
4.52858e-05
1.43529e-08
4.52871e-05
1.64643e-08
4.52886e-05
1.83881e-08
4.52903e-05
1.99688e-08
4.52922e-05
2.12422e-08
4.52944e-05
2.22112e-08
4.52967e-05
2.28128e-08
4.52991e-05
2.30313e-08
4.53016e-05
2.29311e-08
4.53041e-05
2.25796e-08
4.53067e-05
2.20199e-08
4.53093e-05
2.12868e-08
4.53118e-05
2.04247e-08
4.53142e-05
1.9477e-08
1.8343e-08
4.53165e-05
4.88987e-05
1.38063e-09
4.88989e-05
4.00165e-09
4.88994e-05
6.47461e-09
4.89003e-05
8.92133e-09
4.89014e-05
1.10759e-08
4.89028e-05
1.2997e-08
4.89045e-05
1.48086e-08
4.89064e-05
1.64499e-08
4.89086e-05
1.78135e-08
4.89109e-05
1.88827e-08
4.89135e-05
1.96558e-08
4.89162e-05
2.01143e-08
4.89189e-05
2.02574e-08
4.89217e-05
2.01253e-08
4.89246e-05
1.97674e-08
4.89274e-05
1.92269e-08
4.89301e-05
1.85401e-08
4.89328e-05
1.77466e-08
4.89354e-05
1.68846e-08
1.58665e-08
4.89378e-05
5.28029e-05
1.23001e-09
5.28033e-05
3.57059e-09
5.28041e-05
5.67871e-09
5.28053e-05
7.73195e-09
5.28068e-05
9.57274e-09
5.28086e-05
1.12169e-08
5.28106e-05
1.2727e-08
5.2813e-05
1.40786e-08
5.28156e-05
1.52029e-08
5.28184e-05
1.60709e-08
5.28214e-05
1.66758e-08
5.28245e-05
1.70184e-08
5.28277e-05
1.71093e-08
5.28308e-05
1.69793e-08
5.28339e-05
1.66638e-08
5.28369e-05
1.61953e-08
5.28399e-05
1.56007e-08
5.28427e-05
1.49095e-08
5.28454e-05
1.41527e-08
1.32548e-08
5.28481e-05
5.70188e-05
9.9556e-10
5.70194e-05
2.91857e-09
5.70205e-05
4.59421e-09
5.7022e-05
6.21616e-09
5.70239e-05
7.68744e-09
5.70261e-05
9.00829e-09
5.70286e-05
1.02051e-08
5.70314e-05
1.12647e-08
5.70345e-05
1.2143e-08
5.70378e-05
1.28131e-08
5.70412e-05
1.3266e-08
5.70447e-05
1.35096e-08
5.70482e-05
1.35613e-08
5.70517e-05
1.34516e-08
5.70552e-05
1.32104e-08
5.70585e-05
1.28623e-08
5.70617e-05
1.24204e-08
5.70647e-05
1.18943e-08
5.70676e-05
1.12946e-08
1.05528e-08
5.70703e-05
6.15712e-05
6.83619e-10
6.15721e-05
2.01938e-09
6.15735e-05
3.20747e-09
6.15754e-05
4.36737e-09
6.15776e-05
5.4285e-09
6.15803e-05
6.38494e-09
6.15832e-05
7.24777e-09
6.15865e-05
8.00991e-09
6.159e-05
8.64221e-09
6.15937e-05
9.12192e-09
6.15975e-05
9.43736e-09
6.16014e-05
9.59448e-09
6.16054e-05
9.61035e-09
6.16093e-05
9.51484e-09
6.16132e-05
9.34059e-09
6.16169e-05
9.11718e-09
6.16205e-05
8.85998e-09
6.16238e-05
8.56738e-09
6.16269e-05
8.22237e-09
7.76433e-09
6.16297e-05
6.64871e-05
3.4027e-10
6.64883e-05
8.38979e-10
6.649e-05
1.50243e-09
6.64922e-05
2.17791e-09
6.64948e-05
2.80558e-09
6.64979e-05
3.374e-09
6.65012e-05
3.88743e-09
6.65049e-05
4.34448e-09
6.65088e-05
4.72966e-09
6.65129e-05
5.025e-09
6.65171e-05
5.21768e-09
6.65214e-05
5.3051e-09
6.65257e-05
5.29549e-09
6.653e-05
5.20621e-09
6.65343e-05
5.0644e-09
6.65385e-05
4.90371e-09
6.65426e-05
4.76174e-09
6.65465e-05
4.66661e-09
6.65501e-05
4.62246e-09
4.59561e-09
6.65533e-05
7.17955e-05
3.185e-11
7.17969e-05
-6.1487e-10
7.17989e-05
-4.67004e-10
7.18014e-05
-3.25297e-10
7.18044e-05
-1.86458e-10
7.18078e-05
-3.55794e-11
7.18116e-05
1.25054e-10
7.18156e-05
2.85368e-10
7.18199e-05
4.34081e-10
7.18244e-05
5.57387e-10
7.1829e-05
6.44458e-10
7.18336e-05
6.85894e-10
7.18382e-05
6.79086e-10
7.18428e-05
6.22255e-10
7.18473e-05
5.18963e-10
7.18518e-05
3.76004e-10
7.18564e-05
2.16039e-10
7.1861e-05
8.45357e-11
7.18655e-05
6.12045e-11
3.10692e-11
7.18701e-05
7.75276e-05
7.75293e-05
7.75314e-05
7.75341e-05
7.75374e-05
7.75411e-05
7.75453e-05
7.75498e-05
7.75545e-05
7.75593e-05
7.75643e-05
7.75693e-05
7.75742e-05
7.75791e-05
7.75838e-05
7.75885e-05
7.75931e-05
7.75979e-05
7.76031e-05
7.76108e-05
3.74683e-06
7.10062e-08
3.6687e-06
7.81312e-08
3.58055e-06
8.81502e-08
3.48847e-06
9.2078e-08
3.39163e-06
9.68443e-08
3.29161e-06
1.00018e-07
3.18796e-06
1.03655e-07
3.08065e-06
1.07309e-07
2.97713e-06
1.03518e-07
2.87691e-06
1.00216e-07
2.77034e-06
1.0657e-07
2.65817e-06
1.12175e-07
2.54637e-06
1.11803e-07
2.43413e-06
1.12235e-07
2.32035e-06
1.13783e-07
2.20664e-06
1.13708e-07
2.09275e-06
1.13887e-07
1.97864e-06
1.14114e-07
1.86733e-06
1.11306e-07
1.76117e-06
1.06159e-07
1.662e-06
9.91737e-08
1.57783e-06
8.4166e-08
1.52095e-06
5.68841e-08
1.49573e-06
2.52249e-08
1.49352e-06
2.20804e-09
1.50072e-06
-7.20315e-09
1.5083e-06
-7.58184e-09
1.51369e-06
-5.38351e-09
1.51744e-06
-3.75082e-09
1.52038e-06
-2.939e-09
1.52283e-06
-2.45708e-09
1.52488e-06
-2.04978e-09
1.52655e-06
-1.66556e-09
1.52784e-06
-1.29532e-09
1.52879e-06
-9.46418e-10
1.52943e-06
-6.4543e-10
1.52985e-06
-4.15413e-10
1.53011e-06
-2.58716e-10
1.53027e-06
-1.61423e-10
1.53038e-06
-1.05093e-10
1.53045e-06
-7.38181e-11
1.53051e-06
-5.63565e-11
1.53055e-06
-4.58774e-11
1.53059e-06
-3.87416e-11
1.53062e-06
-3.32187e-11
1.53065e-06
-2.85899e-11
1.53068e-06
-2.45775e-11
1.5307e-06
-2.10765e-11
1.53072e-06
-1.80466e-11
1.53073e-06
-1.54412e-11
1.53074e-06
-1.3201e-11
1.53076e-06
-1.12805e-11
1.53077e-06
-9.64809e-12
1.53077e-06
-8.23946e-12
1.53078e-06
-7.01631e-12
1.53079e-06
-5.95506e-12
1.53079e-06
-5.05402e-12
1.5308e-06
-4.2955e-12
1.5308e-06
-3.63944e-12
1.5308e-06
-3.08713e-12
1.53081e-06
-2.59775e-12
1.53081e-06
-2.17782e-12
1.53081e-06
-1.82257e-12
1.53081e-06
-1.50273e-12
1.53081e-06
-1.25554e-12
1.53081e-06
-1.05185e-12
1.53081e-06
-8.76323e-13
1.53081e-06
-7.37929e-13
1.53082e-06
-5.92725e-13
1.53082e-06
-4.74894e-13
1.53082e-06
-3.83618e-13
1.53082e-06
-3.03608e-13
1.53082e-06
-2.51408e-13
1.53082e-06
-1.94669e-13
1.53082e-06
-1.5088e-13
1.53082e-06
-9.3074e-14
1.53082e-06
-8.71576e-14
1.53082e-06
1.43073e-14
1.53082e-06
-1.03517e-13
1.53082e-06
2.21089e-13
1.53082e-06
-3.1913e-13
1.53082e-06
8.34014e-13
1.53082e-06
-1.21382e-12
1.53082e-06
2.68836e-12
1.53082e-06
-4.06204e-12
1.53081e-06
7.78071e-12
1.53082e-06
-1.13948e-11
1.5308e-06
1.92482e-11
1.53083e-06
-2.56238e-11
1.53079e-06
3.76643e-11
1.53083e-06
-4.08792e-11
1.53078e-06
4.94205e-11
1.53081e-06
-2.60377e-11
1.53079e-06
1.77708e-11
1.53071e-06
7.96314e-11
1.53078e-06
-6.90543e-11
1.53048e-06
3.05352e-10
1.53051e-06
-3.84886e-11
1.53008e-06
4.35114e-10
1.33371e-09
4.14948e-06
5.03027e-08
4.16322e-06
6.43941e-08
4.16415e-06
8.72142e-08
4.15875e-06
9.7485e-08
4.14909e-06
1.06506e-07
4.13633e-06
1.1277e-07
4.12088e-06
1.19107e-07
4.10206e-06
1.26128e-07
4.0827e-06
1.2288e-07
4.06313e-06
1.19788e-07
4.03814e-06
1.31563e-07
4.00787e-06
1.42443e-07
3.97596e-06
1.43715e-07
3.94096e-06
1.47232e-07
3.90159e-06
1.53155e-07
3.85974e-06
1.55558e-07
3.81518e-06
1.58445e-07
3.76682e-06
1.62471e-07
3.71669e-06
1.6144e-07
3.66639e-06
1.56459e-07
3.61547e-06
1.50092e-07
3.56713e-06
1.32508e-07
3.52875e-06
9.52597e-08
3.50455e-06
4.943e-08
3.49208e-06
1.46783e-08
3.48601e-06
-1.13346e-09
3.48246e-06
-4.03411e-09
3.48022e-06
-3.14462e-09
3.47977e-06
-3.29679e-09
3.48189e-06
-5.06174e-09
3.48683e-06
-7.39414e-09
3.49402e-06
-9.24778e-09
3.50236e-06
-1.00009e-08
3.51057e-06
-9.51007e-09
3.51768e-06
-8.05688e-09
3.52319e-06
-6.1505e-09
3.52705e-06
-4.27499e-09
3.52952e-06
-2.73155e-09
3.53098e-06
-1.61999e-09
3.53178e-06
-9.02339e-10
3.53218e-06
-4.80194e-10
3.53238e-06
-2.50624e-10
3.53247e-06
-1.33211e-10
3.5325e-06
-7.53041e-11
3.53252e-06
-4.66312e-11
3.53252e-06
-3.1574e-11
3.53252e-06
-2.27487e-11
3.53251e-06
-1.69125e-11
3.53251e-06
-1.27054e-11
3.5325e-06
-9.52059e-12
3.53249e-06
-7.04244e-12
3.53249e-06
-5.11496e-12
3.53248e-06
-3.64125e-12
3.53248e-06
-2.48669e-12
3.53247e-06
-1.57588e-12
3.53247e-06
-8.59107e-13
3.53246e-06
-3.34093e-13
3.53246e-06
3.63056e-14
3.53245e-06
3.0823e-13
3.53245e-06
4.8789e-13
3.53245e-06
6.35275e-13
3.53244e-06
7.22829e-13
3.53244e-06
7.72889e-13
3.53244e-06
8.1114e-13
3.53244e-06
7.87539e-13
3.53244e-06
7.50551e-13
3.53243e-06
7.02311e-13
3.53243e-06
6.41624e-13
3.53243e-06
6.20745e-13
3.53243e-06
5.79317e-13
3.53243e-06
5.34787e-13
3.53243e-06
4.88157e-13
3.53243e-06
4.2715e-13
3.53243e-06
3.9348e-13
3.53243e-06
3.56086e-13
3.53243e-06
3.49653e-13
3.53243e-06
3.01722e-13
3.53243e-06
3.56297e-13
3.53242e-06
2.04577e-13
3.53242e-06
5.06044e-13
3.53242e-06
-3.80595e-14
3.53242e-06
1.11176e-12
3.53242e-06
-8.97274e-13
3.53242e-06
3.01984e-12
3.53242e-06
-3.65107e-12
3.53242e-06
8.36639e-12
3.53242e-06
-1.10082e-11
3.53242e-06
2.09741e-11
3.53242e-06
-2.63787e-11
3.53242e-06
4.35621e-11
3.53242e-06
-4.54308e-11
3.53241e-06
6.3519e-11
3.53241e-06
-2.73908e-11
3.5324e-06
2.45021e-11
3.53234e-06
1.42978e-10
3.53239e-06
-1.23045e-10
3.53216e-06
5.3598e-10
3.53216e-06
-4.18293e-11
3.53191e-06
6.89453e-10
2.0116e-09
4.48892e-06
3.37392e-08
4.50171e-06
5.16069e-08
4.50747e-06
8.1454e-08
4.50873e-06
9.62216e-08
4.50879e-06
1.06454e-07
4.50854e-06
1.13016e-07
4.50886e-06
1.18784e-07
4.50935e-06
1.25637e-07
4.50928e-06
1.22954e-07
4.50876e-06
1.20305e-07
4.50717e-06
1.33155e-07
4.50439e-06
1.45229e-07
4.50125e-06
1.46851e-07
4.49732e-06
1.51163e-07
4.49189e-06
1.58586e-07
4.48538e-06
1.62069e-07
4.47804e-06
1.65784e-07
4.46961e-06
1.70897e-07
4.46031e-06
1.70741e-07
4.4504e-06
1.66374e-07
4.43954e-06
1.60945e-07
4.428e-06
1.44046e-07
4.41714e-06
1.06129e-07
4.4081e-06
5.8461e-08
4.40125e-06
2.15328e-08
4.39642e-06
3.69728e-09
4.39321e-06
-8.24111e-10
4.39121e-06
-1.14208e-09
4.39031e-06
-2.39646e-09
4.3907e-06
-5.45817e-09
4.39256e-06
-9.25124e-09
4.39573e-06
-1.24154e-08
4.39972e-06
-1.39894e-08
4.40388e-06
-1.36709e-08
4.40763e-06
-1.18129e-08
4.41063e-06
-9.14946e-09
4.41278e-06
-6.41881e-09
4.41416e-06
-4.11201e-09
4.41496e-06
-2.42036e-09
4.41537e-06
-1.31503e-09
4.41555e-06
-6.61062e-10
4.41561e-06
-3.06299e-10
4.4156e-06
-1.27756e-10
4.41557e-06
-4.32634e-11
4.41553e-06
-4.95495e-12
4.41548e-06
1.20768e-11
4.41544e-06
1.96559e-11
4.4154e-06
2.29768e-11
4.41536e-06
2.42194e-11
4.41533e-06
2.43381e-11
4.4153e-06
2.38021e-11
4.41527e-06
2.28341e-11
4.41525e-06
2.15631e-11
4.41522e-06
2.01552e-11
4.4152e-06
1.86914e-11
4.41518e-06
1.72255e-11
4.41517e-06
1.57489e-11
4.41515e-06
1.42948e-11
4.41514e-06
1.29145e-11
4.41513e-06
1.15991e-11
4.41512e-06
1.04081e-11
4.41511e-06
9.28696e-12
4.4151e-06
8.25935e-12
4.4151e-06
7.33762e-12
4.41509e-06
6.45512e-12
4.41509e-06
5.66567e-12
4.41508e-06
4.94907e-12
4.41508e-06
4.30026e-12
4.41508e-06
3.77084e-12
4.41507e-06
3.272e-12
4.41507e-06
2.83758e-12
4.41507e-06
2.44726e-12
4.41507e-06
2.08803e-12
4.41507e-06
1.80462e-12
4.41507e-06
1.5491e-12
4.41506e-06
1.35768e-12
4.41506e-06
1.16212e-12
4.41506e-06
1.07311e-12
4.41506e-06
8.4497e-13
4.41506e-06
1.00765e-12
4.41506e-06
5.20193e-13
4.41506e-06
1.39993e-12
4.41506e-06
-1.76274e-13
4.41506e-06
2.89785e-12
4.41506e-06
-2.18846e-12
4.41506e-06
7.16709e-12
4.41506e-06
-7.46301e-12
4.41506e-06
1.72217e-11
4.41505e-06
-1.83746e-11
4.41506e-06
3.53858e-11
4.41505e-06
-3.02844e-11
4.41506e-06
5.06097e-11
4.41503e-06
-1.7826e-12
4.41505e-06
7.81783e-12
4.415e-06
1.93044e-10
4.41501e-06
-1.36116e-10
4.41492e-06
6.26184e-10
4.41483e-06
4.59057e-11
4.41476e-06
7.63088e-10
2.2383e-09
4.85351e-06
2.42722e-08
4.86143e-06
4.36937e-08
4.86703e-06
7.58524e-08
4.86931e-06
9.39387e-08
4.87066e-06
1.051e-07
4.87127e-06
1.12411e-07
4.87267e-06
1.17387e-07
4.87551e-06
1.22793e-07
4.87779e-06
1.20674e-07
4.87915e-06
1.18945e-07
4.88079e-06
1.31516e-07
4.88268e-06
1.43336e-07
4.88445e-06
1.45087e-07
4.88616e-06
1.49453e-07
4.88791e-06
1.56829e-07
4.88965e-06
1.60335e-07
4.89142e-06
1.6401e-07
4.89354e-06
1.68777e-07
4.89594e-06
1.68339e-07
4.89823e-06
1.64092e-07
4.90015e-06
1.59024e-07
4.9012e-06
1.42989e-07
4.90043e-06
1.06902e-07
4.89745e-06
6.14453e-08
4.89319e-06
2.57906e-08
4.88915e-06
7.73264e-09
4.88619e-06
2.13514e-09
4.88428e-06
7.75834e-10
4.88303e-06
-1.15194e-09
4.8822e-06
-4.62984e-09
4.88169e-06
-8.73791e-09
4.88145e-06
-1.21752e-08
4.88144e-06
-1.39816e-08
4.88161e-06
-1.38396e-08
4.88188e-06
-1.20869e-08
4.88219e-06
-9.45334e-09
4.88246e-06
-6.69051e-09
4.88266e-06
-4.3145e-09
4.88278e-06
-2.54287e-09
4.88284e-06
-1.36573e-09
4.88283e-06
-6.573e-10
4.88279e-06
-2.66707e-10
4.88273e-06
-6.78634e-11
4.88266e-06
2.58383e-11
4.88259e-06
6.63114e-11
4.88252e-06
8.14612e-11
4.88246e-06
8.50642e-11
4.8824e-06
8.34702e-11
4.88234e-06
7.95076e-11
4.88229e-06
7.44772e-11
4.88225e-06
6.90201e-11
4.88221e-06
6.34406e-11
4.88217e-06
5.78956e-11
4.88214e-06
5.25647e-11
4.88211e-06
4.75174e-11
4.88208e-06
4.27967e-11
4.88206e-06
3.83739e-11
4.88204e-06
3.42622e-11
4.88202e-06
3.04964e-11
4.88201e-06
2.70371e-11
4.88199e-06
2.3934e-11
4.88198e-06
2.11019e-11
4.88197e-06
1.85535e-11
4.88196e-06
1.62855e-11
4.88195e-06
1.42064e-11
4.88195e-06
1.23694e-11
4.88194e-06
1.07292e-11
4.88194e-06
9.26678e-12
4.88193e-06
8.03424e-12
4.88193e-06
6.90825e-12
4.88193e-06
5.93817e-12
4.88192e-06
5.08088e-12
4.88192e-06
4.31585e-12
4.88192e-06
3.69174e-12
4.88192e-06
3.13909e-12
4.88192e-06
2.69556e-12
4.88191e-06
2.29444e-12
4.88191e-06
2.01677e-12
4.88191e-06
1.66683e-12
4.88191e-06
1.66756e-12
4.88191e-06
1.18719e-12
4.88191e-06
1.81058e-12
4.88191e-06
5.78345e-13
4.88191e-06
2.90741e-12
4.88191e-06
-7.88369e-13
4.88191e-06
6.13155e-12
4.88191e-06
-4.00913e-12
4.88191e-06
1.33879e-11
4.8819e-06
-9.76548e-12
4.88191e-06
2.53406e-11
4.88189e-06
-1.13565e-11
4.88191e-06
3.07754e-11
4.88188e-06
3.21533e-11
4.8819e-06
-1.71926e-11
4.88186e-06
2.37843e-10
4.88185e-06
-1.31597e-10
4.88182e-06
6.57953e-10
4.8817e-06
1.66798e-10
4.88169e-06
7.7306e-10
2.31646e-09
5.24648e-06
2.14314e-08
5.24986e-06
4.03121e-08
5.25496e-06
7.07557e-08
5.25824e-06
9.06561e-08
5.26044e-06
1.02905e-07
5.26113e-06
1.11714e-07
5.26243e-06
1.16094e-07
5.26567e-06
1.19549e-07
5.26806e-06
1.18284e-07
5.2692e-06
1.17808e-07
5.27138e-06
1.29329e-07
5.27435e-06
1.40373e-07
5.27675e-06
1.42684e-07
5.27885e-06
1.47353e-07
5.28148e-06
1.54202e-07
5.28465e-06
1.57162e-07
5.28801e-06
1.60647e-07
5.29183e-06
1.64965e-07
5.29624e-06
1.63922e-07
5.30078e-06
1.59556e-07
5.30508e-06
1.54726e-07
5.30861e-06
1.39457e-07
5.31011e-06
1.05398e-07
5.30878e-06
6.27814e-08
5.30538e-06
2.91821e-08
5.30162e-06
1.14995e-08
5.29864e-06
5.11112e-09
5.29662e-06
2.79544e-09
5.29518e-06
2.87212e-10
5.29394e-06
-3.38311e-09