/*--------------------------------*- C++ -*----------------------------------*\
  =========                 |
  \\      /  F ield         | OpenFOAM: The Open Source CFD Toolbox
   \\    /   O peration     | Website:  https://openfoam.org
    \\  /    A nd           | Version:  6
     \\/     M anipulation  |
\*---------------------------------------------------------------------------*/
FoamFile
{
    version     2.0;
    format      ascii;
    class       volVectorField;
    location    "0.1";
    object      U;
}
// * * * * * * * * * * * * * * * * * * * * * * * * * * * * * * * * * * * * * //

dimensions      [0 1 -1 0 0 0 0];

internalField   nonuniform List<vector> 
4800
(
(0.984538 -0.000794408 0)
(1.03426 0.000148695 0)
(0.956152 0.00206253 0)
(1.04333 -0.00269873 0)
(0.965484 0.000484625 0)
(1.02495 0.0019752 0)
(0.969987 -0.000146574 0)
(1.02999 -0.00216179 0)
(0.972958 -0.000502135 0)
(1.02241 0.00136538 0)
(0.972689 0.0015697 0)
(1.01919 0.000202714 0)
(0.978261 -0.0011714 0)
(1.01963 -0.0013824 0)
(0.980374 -0.00124427 0)
(1.01384 7.20734e-05 0)
(0.980411 0.00143145 0)
(1.01077 0.00115257 0)
(0.980664 0.00112752 0)
(1.00827 0.000572606 0)
(0.993722 -0.00123164 0)
(1.01309 0.000733383 0)
(0.983927 0.0020391 0)
(1.0157 -0.00322728 0)
(0.98741 0.00116153 0)
(1.00555 0.00195996 0)
(0.993649 -0.000401072 0)
(1.00623 -0.00244113 0)
(0.992712 -0.000101708 0)
(1.00243 0.00156706 0)
(0.994796 0.00162478 0)
(1.00133 -1.58403e-06 0)
(0.996912 -0.00145155 0)
(1.00085 -0.00135331 0)
(0.996372 -0.00107109 0)
(0.997229 0.000313713 0)
(0.995914 0.00152455 0)
(0.997232 0.00131105 0)
(0.995872 0.00128992 0)
(0.996271 0.000266786 0)
(0.998757 -0.00122736 0)
(1.00147 0.000875555 0)
(0.997526 0.00169124 0)
(1.00367 -0.00276375 0)
(0.995715 0.00107471 0)
(1.00046 0.0017007 0)
(1.00118 -0.00033292 0)
(0.99993 -0.00212104 0)
(0.996938 -1.40005e-05 0)
(0.999029 0.00131326 0)
(0.999511 0.00144101 0)
(0.999922 7.24665e-05 0)
(0.99943 -0.00126667 0)
(0.998815 -0.00110425 0)
(0.997336 -0.000832806 0)
(0.996208 0.000191306 0)
(0.996713 0.00122792 0)
(0.997581 0.00140459 0)
(0.997137 0.00111693 0)
(0.996968 0.00023015 0)
(0.999984 -0.00114442 0)
(0.998681 0.000669667 0)
(1.00043 0.00185341 0)
(1.00132 -0.00272371 0)
(0.997152 0.000807362 0)
(1.0001 0.00196997 0)
(1.00223 -0.000505766 0)
(0.999172 -0.00195973 0)
(0.997396 -0.000205122 0)
(0.998998 0.00141784 0)
(1.00015 0.00136032 0)
(1.00003 0.000141018 0)
(0.999618 -0.00123434 0)
(0.998708 -0.00113811 0)
(0.997372 -0.000760672 0)
(0.996382 0.000210375 0)
(0.996946 0.00130998 0)
(0.997766 0.00127964 0)
(0.997411 0.00110609 0)
(0.997263 0.000801903 0)
(1.00016 -0.00110277 0)
(0.99836 0.000644804 0)
(1.0007 0.00178999 0)
(1.00104 -0.00270281 0)
(0.997434 0.00104374 0)
(1.00005 0.00167655 0)
(1.00221 -0.000637916 0)
(0.999162 -0.00150042 0)
(0.997566 -0.000261545 0)
(0.999079 0.00146821 0)
(1.00014 0.00095729 0)
(0.999938 0.000161363 0)
(0.999589 -0.000976441 0)
(0.998766 -0.0010167 0)
(0.997495 -0.000466712 0)
(0.996552 0.000369342 0)
(0.99701 0.00108462 0)
(0.997768 0.000975353 0)
(0.997468 0.00130417 0)
(0.99728 0.00128639 0)
(1.00017 -0.00101902 0)
(0.998408 0.000544861 0)
(1.00063 0.00169526 0)
(1.00102 -0.00239953 0)
(0.99758 0.000830807 0)
(0.999996 0.00148918 0)
(1.0021 -0.000305349 0)
(0.999157 -0.00145989 0)
(0.997701 -0.000409468 0)
(0.999152 0.00145959 0)
(1.00009 0.000799506 0)
(0.999842 0.00035569 0)
(0.999493 -0.000747184 0)
(0.998782 -0.00106924 0)
(0.997594 -0.000418642 0)
(0.996678 0.000371204 0)
(0.997092 0.00103288 0)
(0.997859 0.00109167 0)
(0.997551 0.00152411 0)
(0.997218 0.00159537 0)
(1.00017 -0.00094531 0)
(0.998499 0.000436697 0)
(1.00052 0.00170201 0)
(1.00099 -0.00229106 0)
(0.997743 0.000668932 0)
(0.999952 0.00168206 0)
(1.00194 -0.000523428 0)
(0.999159 -0.00142623 0)
(0.997898 -9.35452e-05 0)
(0.999218 0.00133061 0)
(1 0.000670197 0)
(0.999717 0.000287598 0)
(0.999371 -0.000671364 0)
(0.998829 -0.00092291 0)
(0.997766 -0.000211027 0)
(0.996852 0.000567508 0)
(0.997169 0.0011266 0)
(0.997892 0.00109326 0)
(0.997599 0.00143824 0)
(0.997226 0.0018638 0)
(1.00017 -0.000872069 0)
(0.998596 0.000358407 0)
(1.00042 0.00163694 0)
(1.00096 -0.00214931 0)
(0.997919 0.000683239 0)
(0.99987 0.00154497 0)
(1.00179 -0.000710495 0)
(0.999221 -0.000859156 0)
(0.998035 -0.000135906 0)
(0.999238 0.000879556 0)
(0.999941 0.000816806 0)
(0.999633 0.000264621 0)
(0.999295 -0.000469912 0)
(0.998878 -0.000584257 0)
(0.997894 -0.000187795 0)
(0.996969 0.00044796 0)
(0.99721 0.00108845 0)
(0.997946 0.00122123 0)
(0.997777 0.00165738 0)
(0.99741 0.00232155 0)
(1.00016 -0.000793221 0)
(0.998695 0.000265972 0)
(1.00031 0.00157163 0)
(1.00093 -0.00193726 0)
(0.998083 0.000542505 0)
(0.999798 0.00143834 0)
(1.00168 -0.000552185 0)
(0.999231 -0.000692757 0)
(0.998127 -0.00042885 0)
(0.999351 0.000954874 0)
(0.999902 0.00108718 0)
(0.999497 -2.13598e-05 0)
(0.999219 -0.000406401 0)
(0.998889 -0.000312539 0)
(0.997992 -0.000218934 0)
(0.997158 0.000447554 0)
(0.997368 0.0013858 0)
(0.998059 0.00162341 0)
(0.997941 0.00181204 0)
(0.997512 0.00230357 0)
(1.00015 -0.000716369 0)
(0.998797 0.0001792 0)
(1.00022 0.00151488 0)
(1.00089 -0.00176193 0)
(0.998256 0.000403176 0)
(0.999737 0.00148761 0)
(1.00154 -0.000592872 0)
(0.999238 -0.000726374 0)
(0.998278 -0.000159516 0)
(0.999464 0.0010075 0)
(0.999762 0.000766695 0)
(0.999364 -0.000192789 0)
(0.999245 -7.79478e-05 0)
(0.99892 1.67586e-05 0)
(0.998079 -0.000121575 0)
(0.997384 0.000515651 0)
(0.99753 0.00150734 0)
(0.99807 0.00169564 0)
(0.998002 0.0016944 0)
(0.997675 0.0022859 0)
(1.00015 -0.000639908 0)
(0.998901 0.000101449 0)
(1.00013 0.00143827 0)
(1.00085 -0.00157623 0)
(0.998435 0.000307128 0)
(0.999664 0.00145688 0)
(1.00141 -0.000678245 0)
(0.999298 -0.000514429 0)
(0.998395 0.00010731 0)
(0.999492 0.00054682 0)
(0.99968 0.000609926 0)
(0.999342 0.000273406 0)
(0.999264 0.000100133 0)
(0.998874 -9.25395e-05 0)
(0.998125 -4.38557e-05 0)
(0.997613 0.000643538 0)
(0.997714 0.00150759 0)
(0.998119 0.00178844 0)
(0.998165 0.00192696 0)
(0.997973 0.00256066 0)
(1.00014 -0.000564405 0)
(0.999006 2.91121e-05 0)
(1.00004 0.00135249 0)
(1.00079 -0.00137315 0)
(0.998611 0.000186207 0)
(0.999593 0.00140119 0)
(1.00128 -0.000622648 0)
(0.99936 -0.000384805 0)
(0.998449 0.000120256 0)
(0.999553 0.000304674 0)
(0.99971 0.000847143 0)
(0.999252 0.000506085 0)
(0.999153 -0.000244121 0)
(0.998888 -0.000169101 0)
(0.998293 0.00047701 0)
(0.997851 0.00100392 0)
(0.997895 0.0014175 0)
(0.998218 0.00177247 0)
(0.998308 0.00209784 0)
(0.998114 0.00248842 0)
(1.00013 -0.000491423 0)
(0.999111 -3.40451e-05 0)
(0.999965 0.00125907 0)
(1.00073 -0.00117225 0)
(0.998788 6.49129e-05 0)
(0.999534 0.00136775 0)
(1.00115 -0.000550666 0)
(0.999421 -0.000406001 0)
(0.998514 0.000247952 0)
(0.999636 0.000347069 0)
(0.999712 0.000764616 0)
(0.999081 0.000368377 0)
(0.999103 -0.000227155 0)
(0.999084 0.000239403 0)
(0.998473 0.000913664 0)
(0.997908 0.000978676 0)
(0.997979 0.00108741 0)
(0.99838 0.00165868 0)
(0.998464 0.00223215 0)
(0.998219 0.00249846 0)
(1.00012 -0.000421671 0)
(0.999215 -8.64094e-05 0)
(0.9999 0.0011553 0)
(1.00067 -0.000972484 0)
(0.998963 -3.81782e-05 0)
(0.999481 0.00131166 0)
(1.00101 -0.0004773 0)
(0.999505 -0.000412491 0)
(0.998589 0.000442615 0)
(0.99966 0.000306153 0)
(0.999704 0.000465024 0)
(0.999005 0.000491851 0)
(0.999131 0.000220764 0)
(0.999224 0.000380217 0)
(0.998515 0.000707837 0)
(0.997908 0.000860336 0)
(0.998163 0.00122655 0)
(0.998696 0.00188397 0)
(0.998681 0.00236768 0)
(0.998268 0.00246689 0)
(1.00011 -0.000356026 0)
(0.999316 -0.000127424 0)
(0.999847 0.00104349 0)
(1.00059 -0.000776019 0)
(0.999131 -0.000126267 0)
(0.999441 0.0012269 0)
(1.00086 -0.00036123 0)
(0.999603 -0.000408142 0)
(0.998653 0.000536471 0)
(0.99964 0.000270467 0)
(0.999757 0.000331819 0)
(0.999013 0.000718027 0)
(0.99907 0.000448826 0)
(0.999234 0.000182928 0)
(0.998638 0.00057209 0)
(0.998113 0.00123876 0)
(0.998405 0.00169981 0)
(0.99888 0.00187905 0)
(0.998731 0.00195168 0)
(0.998206 0.00207352 0)
(1.0001 -0.00029536 0)
(0.999413 -0.000156371 0)
(0.999805 0.000926241 0)
(1.00051 -0.000589644 0)
(0.99929 -0.000194144 0)
(0.999419 0.00112382 0)
(1.00071 -0.000219927 0)
(0.999698 -0.00041859 0)
(0.998728 0.000564717 0)
(0.99961 0.000355413 0)
(0.999825 0.000279408 0)
(0.999029 0.000717207 0)
(0.998957 0.000526591 0)
(0.999274 0.000254198 0)
(0.998919 0.000776108 0)
(0.998364 0.00153099 0)
(0.998432 0.00170785 0)
(0.998805 0.00149494 0)
(0.998782 0.00155447 0)
(0.99843 0.00206804 0)
(1.00008 -0.00024035 0)
(0.999505 -0.000173199 0)
(0.999777 0.000806286 0)
(1.00043 -0.00041846 0)
(0.999435 -0.000235978 0)
(0.999415 0.0010032 0)
(1.00055 -7.61941e-05 0)
(0.999786 -0.000412204 0)
(0.998827 0.000565469 0)
(0.999562 0.000475266 0)
(0.999862 0.00021419 0)
(0.99908 0.000623168 0)
(0.99891 0.000715036 0)
(0.999336 0.000542386 0)
(0.999153 0.000843171 0)
(0.998505 0.00136833 0)
(0.998375 0.00152756 0)
(0.998807 0.00149404 0)
(0.999074 0.00177925 0)
(0.998892 0.00234222 0)
(1.00007 -0.000191487 0)
(0.999589 -0.000178556 0)
(0.999762 0.000687213 0)
(1.00035 -0.000266762 0)
(0.999564 -0.000250807 0)
(0.99943 0.000869455 0)
(1.0004 6.06117e-05 0)
(0.999862 -0.000371018 0)
(0.998946 0.000528458 0)
(0.999503 0.00057055 0)
(0.999874 0.000206939 0)
(0.999192 0.000573915 0)
(0.998922 0.000889587 0)
(0.999327 0.000732514 0)
(0.999276 0.000761395 0)
(0.998681 0.00120526 0)
(0.998497 0.00163188 0)
(0.998957 0.00182238 0)
(0.999304 0.00198989 0)
(0.999118 0.00216291 0)
(1.00006 -0.00014904 0)
(0.999666 -0.000173663 0)
(0.999758 0.000572888 0)
(1.00027 -0.000138148 0)
(0.999673 -0.000240138 0)
(0.999464 0.000732176 0)
(1.00025 0.000180024 0)
(0.999917 -0.000298815 0)
(0.999079 0.000464658 0)
(0.999453 0.000643254 0)
(0.999867 0.000276616 0)
(0.999325 0.000539032 0)
(0.998962 0.00093762 0)
(0.999278 0.000852769 0)
(0.999379 0.000807048 0)
(0.998952 0.00122623 0)
(0.998715 0.00174812 0)
(0.999018 0.00190572 0)
(0.999288 0.00185435 0)
(0.999189 0.001875 0)
(1.00005 -0.00011302 0)
(0.999733 -0.000160256 0)
(0.999765 0.000466986 0)
(1.00019 -3.45785e-05 0)
(0.999761 -0.000207561 0)
(0.999512 0.000601074 0)
(1.00013 0.000272686 0)
(0.99995 -0.000202017 0)
(0.99922 0.000399807 0)
(0.999427 0.000687945 0)
(0.999839 0.000377983 0)
(0.999448 0.000510879 0)
(0.999044 0.000925443 0)
(0.999262 0.000985841 0)
(0.99947 0.000951408 0)
(0.999199 0.00123514 0)
(0.998892 0.00165847 0)
(0.999015 0.00180621 0)
(0.999282 0.00179945 0)
(0.999375 0.00193834 0)
(1.00004 -8.31848e-05 0)
(0.999791 -0.000140448 0)
(0.99978 0.000372651 0)
(1.00013 4.38991e-05 0)
(0.999829 -0.000158752 0)
(0.99957 0.000484548 0)
(1.00002 0.000335351 0)
(0.999962 -8.97109e-05 0)
(0.999361 0.000350227 0)
(0.99943 0.000697983 0)
(0.999797 0.00048158 0)
(0.999555 0.000519662 0)
(0.99917 0.000907985 0)
(0.999285 0.00108319 0)
(0.999516 0.0010624 0)
(0.99937 0.00120496 0)
(0.999075 0.00154243 0)
(0.999113 0.00179079 0)
(0.999395 0.00190395 0)
(0.999559 0.0020474 0)
(1.00003 -5.90668e-05 0)
(0.99984 -0.00011651 0)
(0.999801 0.000292151 0)
(1.00007 9.90465e-05 0)
(0.999878 -0.000100478 0)
(0.999634 0.000388869 0)
(0.999946 0.000370062 0)
(0.999958 2.55751e-05 0)
(0.999491 0.000323314 0)
(0.999461 0.000681825 0)
(0.999759 0.000574541 0)
(0.999642 0.000565104 0)
(0.999314 0.000887034 0)
(0.999336 0.00111556 0)
(0.999539 0.0011354 0)
(0.999507 0.00122182 0)
(0.999297 0.00150231 0)
(0.999286 0.00179212 0)
(0.999493 0.00191618 0)
(0.999621 0.00197855 0)
(1.00002 -4.0024e-05 0)
(0.99988 -9.06562e-05 0)
(0.999826 0.000226638 0)
(1.00002 0.000134124 0)
(0.999911 -3.94462e-05 0)
(0.999697 0.000317148 0)
(0.999895 0.000382295 0)
(0.999945 0.000132187 0)
(0.999604 0.000320747 0)
(0.999517 0.000653624 0)
(0.999736 0.000645462 0)
(0.999706 0.000626298 0)
(0.999456 0.000869765 0)
(0.999419 0.00111298 0)
(0.999578 0.00119194 0)
(0.999624 0.00126878 0)
(0.999501 0.00147415 0)
(0.999443 0.00171694 0)
(0.999555 0.00183434 0)
(0.999671 0.00189933 0)
(1.00002 -2.53067e-05 0)
(0.999911 -6.48426e-05 0)
(0.999853 0.000176092 0)
(0.999992 0.000153351 0)
(0.999932 1.86133e-05 0)
(0.999757 0.000269113 0)
(0.999868 0.000379367 0)
(0.99993 0.000222211 0)
(0.999697 0.000338356 0)
(0.99959 0.000624508 0)
(0.999734 0.000689669 0)
(0.999755 0.000687625 0)
(0.999587 0.000866724 0)
(0.999527 0.00109822 0)
(0.999639 0.00121905 0)
(0.999714 0.00129585 0)
(0.999657 0.00143657 0)
(0.999596 0.00163008 0)
(0.999664 0.00177592 0)
(0.999789 0.00188067 0)
(1.00001 -1.41313e-05 0)
(0.999935 -4.06161e-05 0)
(0.999879 0.000139427 0)
(0.999971 0.000161249 0)
(0.999944 6.95761e-05 0)
(0.99981 0.000241726 0)
(0.999861 0.000368589 0)
(0.99992 0.000291954 0)
(0.999773 0.000368159 0)
(0.99967 0.000601403 0)
(0.999755 0.000710959 0)
(0.999799 0.000739097 0)
(0.999703 0.000874621 0)
(0.999646 0.00107622 0)
(0.999715 0.00121421 0)
(0.999793 0.00130002 0)
(0.999789 0.001412 0)
(0.999762 0.00157377 0)
(0.999811 0.00172593 0)
(0.999912 0.00183092 0)
(1.00001 -5.74953e-06 0)
(0.999954 -1.90419e-05 0)
(0.999904 0.000114737 0)
(0.99996 0.000162008 0)
(0.999952 0.000111152 0)
(0.999856 0.000230191 0)
(0.999871 0.000355721 0)
(0.999918 0.000341419 0)
(0.999834 0.00040163 0)
(0.999751 0.000586821 0)
(0.999795 0.000716003 0)
(0.999845 0.000773993 0)
(0.999803 0.000884196 0)
(0.999763 0.00105172 0)
(0.999806 0.00119152 0)
(0.999878 0.00128932 0)
(0.99991 0.00139029 0)
(0.999913 0.00151936 0)
(0.999945 0.00164703 0)
(1.00001 0.0017406 0)
(1.00001 4.96948e-07 0)
(0.999967 -7.09473e-07 0)
(0.999926 9.96222e-05 0)
(0.999957 0.000159022 0)
(0.999959 0.000142713 0)
(0.999895 0.000229081 0)
(0.999892 0.000344222 0)
(0.999926 0.000373118 0)
(0.999885 0.000431802 0)
(0.999828 0.000579233 0)
(0.99985 0.000710608 0)
(0.999896 0.000790522 0)
(0.999891 0.00088873 0)
(0.999875 0.00102735 0)
(0.999907 0.00115887 0)
(0.999969 0.00126095 0)
(1.00002 0.00135351 0)
(1.00004 0.00145608 0)
(1.00007 0.00156209 0)
(1.00013 0.00165355 0)
(1 5.14268e-06 0)
(0.999977 1.41939e-05 0)
(0.999945 9.15231e-05 0)
(0.999961 0.00015463 0)
(0.999967 0.000164838 0)
(0.999928 0.00023329 0)
(0.99992 0.000335257 0)
(0.999944 0.000390574 0)
(0.999931 0.000454092 0)
(0.9999 0.000574813 0)
(0.999914 0.000698642 0)
(0.999955 0.000790563 0)
(0.999973 0.000883784 0)
(0.999978 0.00100038 0)
(1.00001 0.00111778 0)
(1.00006 0.00121653 0)
(1.00012 0.00130315 0)
(1.00015 0.00139106 0)
(1.0002 0.00148198 0)
(1.00025 0.00156539 0)
(1 8.58597e-06 0)
(0.999985 2.57665e-05 0)
(0.999962 8.80008e-05 0)
(0.999969 0.00015009 0)
(0.999977 0.000178749 0)
(0.999957 0.000238641 0)
(0.999952 0.000328206 0)
(0.999971 0.000397084 0)
(0.999975 0.000466249 0)
(0.999966 0.000569293 0)
(0.999981 0.000681685 0)
(1.00002 0.000776858 0)
(1.00005 0.000866862 0)
(1.00007 0.000967318 0)
(1.00011 0.00106976 0)
(1.00016 0.00116138 0)
(1.00021 0.00124246 0)
(1.00026 0.00131994 0)
(1.00031 0.00139627 0)
(1.00036 0.00146689 0)
(1 1.10953e-05 0)
(0.99999 3.42633e-05 0)
(0.999975 8.69242e-05 0)
(0.999979 0.000145736 0)
(0.999989 0.000185796 0)
(0.999984 0.0002421 0)
(0.999985 0.000321402 0)
(1 0.000395036 0)
(1.00002 0.000467705 0)
(1.00003 0.000559064 0)
(1.00005 0.000659491 0)
(1.00009 0.000751712 0)
(1.00013 0.000837622 0)
(1.00016 0.000926079 0)
(1.0002 0.00101502 0)
(1.00025 0.00109728 0)
(1.00031 0.00117099 0)
(1.00036 0.001239 0)
(1.00041 0.0013035 0)
(1.00046 0.00136358 0)
(1 1.28285e-05 0)
(0.999995 3.99813e-05 0)
(0.999987 8.65555e-05 0)
(0.999992 0.00014123 0)
(1 0.000187096 0)
(1.00001 0.000241683 0)
(1.00002 0.000312821 0)
(1.00004 0.000385729 0)
(1.00006 0.000458765 0)
(1.00008 0.000541609 0)
(1.00011 0.000630926 0)
(1.00015 0.000716593 0)
(1.0002 0.00079676 0)
(1.00024 0.00087539 0)
(1.00029 0.000952478 0)
(1.00034 0.00102459 0)
(1.00039 0.00108992 0)
(1.00045 0.00114951 0)
(1.0005 0.00120478 0)
(1.00055 0.00125585 0)
(1 1.38585e-05 0)
(0.999999 4.31773e-05 0)
(0.999997 8.55505e-05 0)
(1 0.000135833 0)
(1.00002 0.00018336 0)
(1.00003 0.00023621 0)
(1.00005 0.000300568 0)
(1.00008 0.000369557 0)
(1.00011 0.000439966 0)
(1.00014 0.000515442 0)
(1.00017 0.000594675 0)
(1.00022 0.000672061 0)
(1.00027 0.000745023 0)
(1.00032 0.000814728 0)
(1.00037 0.000881446 0)
(1.00042 0.000943772 0)
(1.00048 0.00100057 0)
(1.00053 0.00105212 0)
(1.00058 0.00109916 0)
(1.00064 0.00114208 0)
(1 1.42009e-05 0)
(1 4.40306e-05 0)
(1.00001 8.29074e-05 0)
(1.00002 0.000128642 0)
(1.00004 0.000174873 0)
(1.00006 0.00022501 0)
(1.00008 0.000283134 0)
(1.00011 0.000346354 0)
(1.00015 0.000411731 0)
(1.00019 0.000479805 0)
(1.00023 0.000549609 0)
(1.00028 0.000618026 0)
(1.00033 0.000682856 0)
(1.00039 0.000743997 0)
(1.00044 0.000801499 0)
(1.00049 0.000854831 0)
(1.00055 0.000903402 0)
(1.00061 0.00094727 0)
(1.00066 0.000986855 0)
(1.00071 0.00102261 0)
(1 1.38299e-05 0)
(1 4.26415e-05 0)
(1.00001 7.79265e-05 0)
(1.00003 0.000118782 0)
(1.00005 0.000161575 0)
(1.00008 0.000207661 0)
(1.00011 0.000259426 0)
(1.00015 0.000315715 0)
(1.00019 0.00037429 0)
(1.00023 0.000434378 0)
(1.00028 0.000494936 0)
(1.00034 0.000554101 0)
(1.00039 0.000610277 0)
(1.00045 0.000662965 0)
(1.0005 0.000712026 0)
(1.00056 0.00075724 0)
(1.00062 0.000798324 0)
(1.00067 0.000835289 0)
(1.00073 0.000868368 0)
(1.00078 0.000897918 0)
(1 1.26905e-05 0)
(1.00001 3.89884e-05 0)
(1.00002 7.01344e-05 0)
(1.00004 0.000105604 0)
(1.00007 0.000143326 0)
(1.0001 0.000183916 0)
(1.00014 0.000228698 0)
(1.00018 0.00027716 0)
(1.00023 0.000327664 0)
(1.00028 0.000379039 0)
(1.00033 0.000430188 0)
(1.00039 0.000479874 0)
(1.00045 0.000527018 0)
(1.0005 0.00057115 0)
(1.00056 0.000612108 0)
(1.00062 0.000649822 0)
(1.00068 0.000684173 0)
(1.00073 0.000715152 0)
(1.00078 0.000742831 0)
(1.00083 0.000767398 0)
(1 1.07817e-05 0)
(1.00001 3.2911e-05 0)
(1.00003 5.89785e-05 0)
(1.00005 8.85242e-05 0)
(1.00008 0.000120087 0)
(1.00012 0.000153926 0)
(1.00016 0.000190806 0)
(1.00021 0.000230506 0)
(1.00026 0.000271877 0)
(1.00031 0.000313775 0)
(1.00037 0.00035514 0)
(1.00043 0.000395058 0)
(1.00049 0.000432794 0)
(1.00055 0.000468046 0)
(1.00061 0.000500742 0)
(1.00067 0.00053097 0)
(1.00073 0.000558768 0)
(1.00078 0.000584199 0)
(1.00084 0.000607256 0)
(1.00088 0.000627972 0)
(1 8.29107e-06 0)
(1.00001 2.46731e-05 0)
(1.00003 4.40637e-05 0)
(1.00006 6.65966e-05 0)
(1.0001 9.11831e-05 0)
(1.00014 0.000117582 0)
(1.00018 0.000145979 0)
(1.00023 0.000176238 0)
(1.00028 0.00020764 0)
(1.00034 0.000239327 0)
(1.0004 0.0002704 0)
(1.00047 0.000300164 0)
(1.00053 0.000328085 0)
(1.00059 0.000353999 0)
(1.00065 0.000377916 0)
(1.00072 0.000400065 0)
(1.00077 0.000420656 0)
(1.00083 0.000439935 0)
(1.00088 0.000458013 0)
(1.00093 0.000474943 0)
(1 5.49252e-06 0)
(1.00001 1.5639e-05 0)
(1.00004 2.71798e-05 0)
(1.00007 4.08862e-05 0)
(1.00011 5.66905e-05 0)
(1.00015 7.44118e-05 0)
(1.0002 9.3742e-05 0)
(1.00025 0.000114318 0)
(1.0003 0.000135575 0)
(1.00036 0.000156907 0)
(1.00043 0.000177642 0)
(1.00049 0.000197259 0)
(1.00055 0.000215382 0)
(1.00062 0.000231888 0)
(1.00068 0.000246832 0)
(1.00075 0.000260439 0)
(1.00081 0.000273031 0)
(1.00086 0.000284991 0)
(1.00092 0.000296698 0)
(1.00097 0.000308433 0)
(1 2.76217e-06 0)
(1.00001 7.42097e-06 0)
(1.00004 1.2365e-05 0)
(1.00007 1.77818e-05 0)
(1.00011 2.40694e-05 0)
(1.00016 3.16534e-05 0)
(1.00021 4.05723e-05 0)
(1.00026 5.05815e-05 0)
(1.00032 6.13022e-05 0)
(1.00038 7.22644e-05 0)
(1.00044 8.3018e-05 0)
(1.0005 9.3125e-05 0)
(1.00057 0.000102332 0)
(1.00063 0.000110462 0)
(1.0007 0.000117549 0)
(1.00076 0.000123659 0)
(1.00082 0.000129054 0)
(1.00088 0.00013401 0)
(1.00094 0.000139001 0)
(1.001 0.000144457 0)
(1 7.39081e-07 0)
(1.00001 1.83537e-06 0)
(1.00004 3.01521e-06 0)
(1.00007 4.03359e-06 0)
(1.00011 4.95503e-06 0)
(1.00016 6.11463e-06 0)
(1.00021 7.75999e-06 0)
(1.00026 9.92084e-06 0)
(1.00032 1.25189e-05 0)
(1.00038 1.53622e-05 0)
(1.00045 1.82807e-05 0)
(1.00051 2.10651e-05 0)
(1.00057 2.36083e-05 0)
(1.00064 2.5797e-05 0)
(1.0007 2.76308e-05 0)
(1.00076 2.90881e-05 0)
(1.00083 3.02545e-05 0)
(1.00089 3.12055e-05 0)
(1.00095 3.21483e-05 0)
(1.00101 3.32958e-05 0)
(0.982221 -0.000101879 0)
(0.957151 0.000217175 0)
(0.933432 0.000608287 0)
(0.910408 0.00115328 0)
(0.886533 0.00178443 0)
(0.861407 0.00211438 0)
(0.836115 0.00238169 0)
(0.809237 0.00248798 0)
(0.781432 0.00219858 0)
(0.755152 0.002184 0)
(0.728638 0.00249243 0)
(0.700382 0.00257946 0)
(0.671375 0.00257635 0)
(0.64219 0.00258434 0)
(0.613018 0.00258276 0)
(0.583784 0.0026995 0)
(0.554317 0.00271381 0)
(0.524876 0.00255566 0)
(0.495781 0.00262596 0)
(0.467297 0.00280526 0)
(0.440158 0.00236197 0)
(0.416216 0.00109941 0)
(0.398219 -0.000327623 0)
(0.388013 -0.00121072 0)
(0.384861 -0.00137576 0)
(0.385871 -0.00109051 0)
(0.388048 -0.000701391 0)
(0.389836 -0.000398816 0)
(0.391022 -0.000210404 0)
(0.391867 -9.9732e-05 0)
(0.392553 -3.50133e-05 0)
(0.393134 -3.82235e-07 0)
(0.393614 1.37264e-05 0)
(0.393995 1.56643e-05 0)
(0.394281 1.21347e-05 0)
(0.394483 7.35989e-06 0)
(0.394616 3.38916e-06 0)
(0.3947 8.37935e-07 0)
(0.394752 -4.53979e-07 0)
(0.394785 -9.21255e-07 0)
(0.394807 -9.66233e-07 0)
(0.394823 -8.51844e-07 0)
(0.394836 -7.09818e-07 0)
(0.394847 -5.86514e-07 0)
(0.394856 -4.8919e-07 0)
(0.394864 -4.13295e-07 0)
(0.394871 -3.52599e-07 0)
(0.394877 -3.02382e-07 0)
(0.394882 -2.59774e-07 0)
(0.394886 -2.23163e-07 0)
(0.39489 -1.91684e-07 0)
(0.394893 -1.64695e-07 0)
(0.394896 -1.41319e-07 0)
(0.394898 -1.20647e-07 0)
(0.3949 -1.02632e-07 0)
(0.394902 -8.71451e-08 0)
(0.394903 -7.40379e-08 0)
(0.394904 -6.29034e-08 0)
(0.394905 -5.3154e-08 0)
(0.394906 -4.48699e-08 0)
(0.394907 -3.76816e-08 0)
(0.394907 -3.15882e-08 0)
(0.394908 -2.64275e-08 0)
(0.394908 -2.18108e-08 0)
(0.394909 -1.81993e-08 0)
(0.394909 -1.52482e-08 0)
(0.394909 -1.26241e-08 0)
(0.39491 -1.05428e-08 0)
(0.39491 -8.52909e-09 0)
(0.39491 -6.80793e-09 0)
(0.39491 -5.60617e-09 0)
(0.39491 -4.48967e-09 0)
(0.39491 -3.67536e-09 0)
(0.39491 -2.93858e-09 0)
(0.39491 -2.26391e-09 0)
(0.39491 -1.61281e-09 0)
(0.39491 -1.35117e-09 0)
(0.39491 -5.49293e-10 0)
(0.39491 -1.06717e-09 0)
(0.39491 9.5206e-10 0)
(0.39491 -1.89484e-09 0)
(0.39491 4.59333e-09 0)
(0.394911 -6.36152e-09 0)
(0.39491 1.46233e-08 0)
(0.394911 -2.06961e-08 0)
(0.394908 4.10543e-08 0)
(0.394913 -5.69901e-08 0)
(0.394905 9.90993e-08 0)
(0.394917 -1.26914e-07 0)
(0.394897 1.94484e-07 0)
(0.394925 -2.09992e-07 0)
(0.394886 2.87944e-07 0)
(0.394933 -2.01979e-07 0)
(0.394872 2.83228e-07 0)
(0.394932 1.70235e-07 0)
(0.394842 -2.6005e-08 0)
(0.394922 1.72031e-06 0)
(0.394718 -6.89284e-07 0)
(0.394899 2.98395e-06 0)
(0.394326 7.79515e-06 0)
(0.995623 -0.000192117 0)
(0.993973 0.00127803 0)
(0.993074 0.00253249 0)
(0.992536 0.00364244 0)
(0.991239 0.0045375 0)
(0.989111 0.00490819 0)
(0.986757 0.00514867 0)
(0.983209 0.00537056 0)
(0.978249 0.00513436 0)
(0.973226 0.00494711 0)
(0.967904 0.00545848 0)
(0.961447 0.00594964 0)
(0.953924 0.00591516 0)
(0.945659 0.0059301 0)
(0.936807 0.00613919 0)
(0.927164 0.00616464 0)
(0.916736 0.00615263 0)
(0.905729 0.00632647 0)
(0.894013 0.00638504 0)
(0.881616 0.00617114 0)
(0.869105 0.00586073 0)
(0.857397 0.00528255 0)
(0.847499 0.00408959 0)
(0.840131 0.00249685 0)
(0.835488 0.00114371 0)
(0.83312 0.000389563 0)
(0.832065 0.000110832 0)
(0.8315 2.35708e-05 0)
(0.831205 -3.68176e-05 0)
(0.831386 -9.66808e-05 0)
(0.832242 -0.000136219 0)
(0.833753 -0.000145354 0)
(0.83569 -0.0001292 0)
(0.837739 -9.89951e-05 0)
(0.839613 -6.59473e-05 0)
(0.841134 -3.80924e-05 0)
(0.842243 -1.89076e-05 0)
(0.842978 -7.96145e-06 0)
(0.843424 -2.87813e-06 0)
(0.843675 -1.11753e-06 0)
(0.843805 -8.3325e-07 0)
(0.843869 -9.88652e-07 0)
(0.843898 -1.14213e-06 0)
(0.84391 -1.1783e-06 0)
(0.843915 -1.1129e-06 0)
(0.843917 -9.91962e-07 0)
(0.843917 -8.52954e-07 0)
(0.843916 -7.18169e-07 0)
(0.843915 -5.98157e-07 0)
(0.843913 -4.95576e-07 0)
(0.843912 -4.09289e-07 0)
(0.843911 -3.37643e-07 0)
(0.843909 -2.78845e-07 0)
(0.843908 -2.29975e-07 0)
(0.843906 -1.89155e-07 0)
(0.843905 -1.55036e-07 0)
(0.843904 -1.27022e-07 0)
(0.843903 -1.04178e-07 0)
(0.843902 -8.51608e-08 0)
(0.843901 -6.96374e-08 0)
(0.8439 -5.6543e-08 0)
(0.8439 -4.57958e-08 0)
(0.843899 -3.69346e-08 0)
(0.843898 -2.92933e-08 0)
(0.843898 -2.3394e-08 0)
(0.843897 -1.87204e-08 0)
(0.843897 -1.50033e-08 0)
(0.843897 -1.2095e-08 0)
(0.843896 -9.33272e-09 0)
(0.843896 -7.05043e-09 0)
(0.843896 -5.2945e-09 0)
(0.843896 -3.93308e-09 0)
(0.843895 -3.01034e-09 0)
(0.843895 -2.12656e-09 0)
(0.843895 -1.4855e-09 0)
(0.843895 -5.34302e-10 0)
(0.843895 -5.11655e-10 0)
(0.843895 1.13775e-09 0)
(0.843895 -8.48342e-10 0)
(0.843895 4.41574e-09 0)
(0.843895 -4.25282e-09 0)
(0.843894 1.40223e-08 0)
(0.843895 -1.7726e-08 0)
(0.843893 4.20516e-08 0)
(0.843897 -5.935e-08 0)
(0.843889 1.16426e-07 0)
(0.843904 -1.63288e-07 0)
(0.843878 2.78827e-07 0)
(0.843919 -3.59175e-07 0)
(0.843854 5.32262e-07 0)
(0.843949 -5.58849e-07 0)
(0.843816 6.76571e-07 0)
(0.843985 -3.06404e-07 0)
(0.843777 1.35911e-07 0)
(0.844003 1.32471e-06 0)
(0.843745 -1.35236e-06 0)
(0.843991 4.37389e-06 0)
(0.843655 -3.70346e-07 0)
(0.843939 3.40711e-06 0)
(0.843397 1.56155e-05 0)
(0.996564 0.000314676 0)
(0.995397 0.00205017 0)
(0.995214 0.00339614 0)
(0.995857 0.00434538 0)
(0.996149 0.00527061 0)
(0.996637 0.00581748 0)
(0.997689 0.00619201 0)
(0.998347 0.00657634 0)
(0.998218 0.00626285 0)
(0.997719 0.00593033 0)
(0.997347 0.00657827 0)
(0.997094 0.00711466 0)
(0.996321 0.00698331 0)
(0.995204 0.00706949 0)
(0.994311 0.00732795 0)
(0.993089 0.00732113 0)
(0.99134 0.00741825 0)
(0.989744 0.00766532 0)
(0.988 0.00755944 0)
(0.985464 0.00723177 0)
(0.982781 0.0070748 0)
(0.980782 0.00661778 0)
(0.97908 0.00518886 0)
(0.97694 0.00311249 0)
(0.974617 0.00133185 0)
(0.972897 0.00035238 0)
(0.971993 1.65318e-05 0)
(0.971555 -5.26243e-05 0)
(0.971303 -9.97017e-05 0)
(0.971247 -0.000193949 0)
(0.971494 -0.000315842 0)
(0.972073 -0.000423966 0)
(0.972903 -0.000483788 0)
(0.973841 -0.000480588 0)
(0.974744 -0.000422647 0)
(0.975503 -0.000333425 0)
(0.976072 -0.00023855 0)
(0.976453 -0.000156194 0)
(0.976684 -9.43343e-05 0)
(0.976808 -5.29543e-05 0)
(0.976867 -2.78635e-05 0)
(0.976888 -1.38863e-05 0)
(0.976891 -6.64502e-06 0)
(0.976886 -3.10759e-06 0)
(0.976877 -1.44595e-06 0)
(0.976868 -6.73576e-07 0)
(0.976858 -3.03821e-07 0)
(0.976849 -1.14273e-07 0)
(0.97684 -8.97678e-09 0)
(0.976833 5.34104e-08 0)
(0.976826 9.17756e-08 0)
(0.976819 1.14455e-07 0)
(0.976813 1.25659e-07 0)
(0.976808 1.29874e-07 0)
(0.976803 1.29527e-07 0)
(0.976799 1.26282e-07 0)
(0.976795 1.20253e-07 0)
(0.976792 1.12178e-07 0)
(0.976789 1.03451e-07 0)
(0.976786 9.41376e-08 0)
(0.976784 8.56123e-08 0)
(0.976782 7.71144e-08 0)
(0.97678 6.90105e-08 0)
(0.976779 6.18333e-08 0)
(0.976777 5.44156e-08 0)
(0.976776 4.76268e-08 0)
(0.976775 4.14182e-08 0)
(0.976774 3.56545e-08 0)
(0.976774 3.12996e-08 0)
(0.976773 2.71807e-08 0)
(0.976772 2.35105e-08 0)
(0.976772 2.02179e-08 0)
(0.976772 1.70649e-08 0)
(0.976771 1.468e-08 0)
(0.976771 1.25475e-08 0)
(0.976771 1.11347e-08 0)
(0.976771 9.41831e-09 0)
(0.97677 9.18643e-09 0)
(0.97677 6.54374e-09 0)
(0.97677 9.62987e-09 0)
(0.97677 2.70959e-09 0)
(0.976769 1.59073e-08 0)
(0.976771 -7.28538e-09 0)
(0.976768 3.69271e-08 0)
(0.976773 -3.69816e-08 0)
(0.976763 9.51748e-08 0)
(0.97678 -1.14354e-07 0)
(0.976751 2.31206e-07 0)
(0.976799 -2.75632e-07 0)
(0.976723 4.75581e-07 0)
(0.976836 -4.72169e-07 0)
(0.976674 6.79319e-07 0)
(0.976887 -2.14509e-07 0)
(0.976619 1.25913e-07 0)
(0.97692 1.87705e-06 0)
(0.97659 -1.7834e-06 0)
(0.976891 6.07786e-06 0)
(0.976568 -2.41012e-07 0)
(0.976795 5.08152e-06 0)
(0.976411 1.98606e-05 0)
(0.997014 0.000681905 0)
(0.995912 0.00195682 0)
(0.995622 0.00339818 0)
(0.996269 0.00454193 0)
(0.996491 0.00567323 0)
(0.996987 0.00638629 0)
(0.998246 0.0066763 0)
(0.999162 0.00673863 0)
(0.999545 0.00624486 0)
(0.999736 0.00594687 0)
(0.999935 0.00652946 0)
(1.00036 0.00701529 0)
(1.00057 0.00699722 0)
(1.0006 0.00705152 0)
(1.00111 0.00716134 0)
(1.00163 0.00720037 0)
(1.00176 0.00733271 0)
(1.00224 0.00737165 0)
(1.00298 0.00712392 0)
(1.00313 0.0069075 0)
(1.00318 0.00678201 0)
(1.004 0.00603678 0)
(1.00486 0.00424223 0)
(1.00456 0.0020573 0)
(1.00322 0.000454369 0)
(1.00189 -0.000246017 0)
(1.00112 -0.000352881 0)
(1.00075 -0.000284201 0)
(1.00051 -0.000263562 0)
(1.00031 -0.000324242 0)
(1.00018 -0.000416322 0)
(1.0001 -0.000483433 0)
(1.00008 -0.000493354 0)
(1.0001 -0.000443644 0)
(1.00015 -0.000354258 0)
(1.00022 -0.00025312 0)
(1.00028 -0.000162814 0)
(1.00033 -9.45906e-05 0)
(1.00037 -4.95794e-05 0)
(1.00038 -2.32191e-05 0)
(1.00039 -9.3975e-06 0)
(1.00038 -2.88142e-06 0)
(1.00037 -1.20132e-07 0)
(1.00036 9.22251e-07 0)
(1.00034 1.26022e-06 0)
(1.00033 1.33584e-06 0)
(1.00032 1.31861e-06 0)
(1.0003 1.26542e-06 0)
(1.00029 1.19426e-06 0)
(1.00028 1.11287e-06 0)
(1.00027 1.0264e-06 0)
(1.00026 9.37646e-07 0)
(1.00025 8.48839e-07 0)
(1.00025 7.63682e-07 0)
(1.00024 6.83599e-07 0)
(1.00023 6.09292e-07 0)
(1.00023 5.3997e-07 0)
(1.00023 4.75994e-07 0)
(1.00022 4.18118e-07 0)
(1.00022 3.65679e-07 0)
(1.00022 3.19453e-07 0)
(1.00021 2.77705e-07 0)
(1.00021 2.40724e-07 0)
(1.00021 2.08387e-07 0)
(1.00021 1.79024e-07 0)
(1.00021 1.53519e-07 0)
(1.0002 1.31078e-07 0)
(1.0002 1.11396e-07 0)
(1.0002 9.52642e-08 0)
(1.0002 8.07157e-08 0)
(1.0002 6.83581e-08 0)
(1.0002 5.75978e-08 0)
(1.0002 4.81063e-08 0)
(1.0002 4.05521e-08 0)
(1.0002 3.39824e-08 0)
(1.0002 2.88762e-08 0)
(1.0002 2.42041e-08 0)
(1.0002 2.12509e-08 0)
(1.0002 1.69587e-08 0)
(1.0002 1.77402e-08 0)
(1.0002 1.11367e-08 0)
(1.0002 2.05422e-08 0)
(1.0002 2.62368e-09 0)
(1.0002 3.5684e-08 0)
(1.0002 -1.75952e-08 0)
(1.00019 7.83298e-08 0)
(1.00021 -6.52284e-08 0)
(1.00018 1.72659e-07 0)
(1.00023 -1.53642e-07 0)
(1.00015 3.30085e-07 0)
(1.00026 -2.21859e-07 0)
(1.0001 4.37113e-07 0)
(1.00032 1.38822e-07 0)
(1.00004 -1.92549e-08 0)
(1.00036 2.15062e-06 0)
(1.00001 -1.44273e-06 0)
(1.00033 6.506e-06 0)
(1.00001 5.12698e-07 0)
(1.00021 6.83718e-06 0)
(0.999884 2.14901e-05 0)
(0.997167 0.000833456 0)
(0.996323 0.00187454 0)
(0.996083 0.00376929 0)
(0.996668 0.00510168 0)
(0.996755 0.0059052 0)