/*--------------------------------*- C++ -*----------------------------------*\
  =========                 |
  \\      /  F ield         | OpenFOAM: The Open Source CFD Toolbox
   \\    /   O peration     | Website:  https://openfoam.org
    \\  /    A nd           | Version:  6
     \\/     M anipulation  |
\*---------------------------------------------------------------------------*/
FoamFile
{
    version     2.0;
    format      ascii;
    class       surfaceScalarField;
    location    "0.7";
    object      phi;
}
// * * * * * * * * * * * * * * * * * * * * * * * * * * * * * * * * * * * * * //

dimensions      [0 3 -1 0 0 0 0];

internalField   nonuniform List<scalar> 
9440
(
3.8814e-06
-1.92059e-08
3.87704e-06
4.45741e-08
3.88289e-06
-2.01432e-08
3.87587e-06
4.39467e-08
3.88521e-06
-2.40768e-08
3.87995e-06
2.17915e-08
3.89032e-06
-1.41741e-08
3.88789e-06
1.98016e-08
3.90423e-06
-1.66857e-08
3.90436e-06
1.35032e-08
3.93005e-06
-1.33022e-08
3.93389e-06
2.01542e-08
3.97412e-06
3.19585e-10
3.99482e-06
1.90977e-08
4.0406e-06
-3.54083e-09
4.05713e-06
2.74614e-09
4.05581e-06
-2.62853e-08
4.05302e-06
-6.32835e-08
4.05946e-06
-7.78584e-08
1.64339e-08
3.93623e-06
4.18292e-06
-1.6264e-08
4.18858e-06
3.89086e-08
4.18658e-06
-1.81376e-08
4.18987e-06
4.06557e-08
4.18888e-06
-2.30841e-08
4.19521e-06
1.54592e-08
4.19733e-06
-1.62912e-08
4.2066e-06
1.05251e-08
4.21306e-06
-2.31458e-08
4.22656e-06
1.00584e-11
4.23575e-06
-2.24973e-08
4.25048e-06
5.42603e-09
4.25983e-06
-9.03176e-09
4.27362e-06
5.30697e-09
4.28504e-06
-1.49639e-08
4.30926e-06
-2.14708e-08
4.3422e-06
-5.92229e-08
4.36492e-06
-8.6001e-08
4.38474e-06
-9.76862e-08
1.63154e-07
4.23802e-06
4.51688e-06
-1.3079e-08
4.52167e-06
3.41181e-08
4.51952e-06
-1.59908e-08
4.52196e-06
3.82127e-08
4.52128e-06
-2.23957e-08
4.52595e-06
1.07821e-08
4.53001e-06
-2.03482e-08
4.53872e-06
1.81288e-09
4.54685e-06
-3.12754e-08
4.55977e-06
-1.29042e-08
4.57211e-06
-3.48438e-08
4.5865e-06
-8.96037e-09
4.60091e-06
-2.34407e-08
4.61647e-06
-1.02576e-08
4.63728e-06
-3.5767e-08
4.67098e-06
-5.51758e-08
4.70479e-06
-9.30343e-08
4.71743e-06
-9.86369e-08
4.59082e-06
2.89258e-08
1.91845e-07
4.56212e-06
4.87916e-06
-1.12872e-08
4.88348e-06
2.9791e-08
4.87956e-06
-1.2064e-08
4.88296e-06
3.48082e-08
4.88183e-06
-2.126e-08
4.88675e-06
5.86019e-09
4.88926e-06
-2.28654e-08
4.90028e-06
-9.20374e-09
4.90777e-06
-3.87627e-08
4.92224e-06
-2.73803e-08
4.93579e-06
-4.8392e-08
4.953e-06
-2.61646e-08
4.97182e-06
-4.22597e-08
4.99424e-06
-3.26847e-08
5.02469e-06
-6.62187e-08
5.06565e-06
-9.61305e-08
5.09495e-06
-1.22331e-07
5.07983e-06
-8.352e-08
4.91209e-06
1.96666e-07
1.99528e-07
4.90441e-06
5.26928e-06
-9.91883e-09
5.27473e-06
2.4338e-08
5.2676e-06
-4.93108e-09
5.27359e-06
2.88197e-08
5.27099e-06
-1.86607e-08
5.27783e-06
-9.8235e-10
5.27742e-06
-2.24581e-08
5.29137e-06
-2.31502e-08
5.29742e-06
-4.48099e-08
5.3146e-06
-4.45631e-08
5.32855e-06
-6.23471e-08
5.35127e-06
-4.8878e-08
5.37533e-06
-6.63182e-08
5.40884e-06
-6.61998e-08
5.44689e-06
-1.04271e-07
5.48782e-06
-1.3706e-07
5.49909e-06
-1.33597e-07
5.26237e-06
1.53197e-07
5.28442e-06
1.74615e-07
2.03892e-07
5.28006e-06
5.6902e-06
-8.65922e-09
5.69642e-06
1.81195e-08
5.68688e-06
4.60782e-09
5.69548e-06
2.02151e-08
5.69099e-06
-1.41626e-08
5.69962e-06
-9.61645e-09
5.69742e-06
-2.02619e-08
5.71339e-06
-3.91146e-08
5.71838e-06
-4.98019e-08
5.73844e-06
-6.46273e-08
5.75305e-06
-7.69575e-08
5.78318e-06
-7.90045e-08
5.81418e-06
-9.73136e-08
5.85947e-06
-1.11493e-07
5.89891e-06
-1.43713e-07
5.9295e-06
-1.67652e-07
5.69609e-06
9.9815e-08
5.67275e-06
1.76536e-07
5.6777e-06
1.69663e-07
1.89541e-07
5.69205e-06
6.14461e-06
-7.39659e-09
6.15104e-06
1.169e-08
6.14004e-06
1.56003e-08
6.15113e-06
9.12599e-09
6.14461e-06
-7.6388e-09
6.15421e-06
-1.92128e-08
6.15194e-06
-1.79934e-08
6.16863e-06
-5.58023e-08
6.17375e-06
-5.49281e-08
6.19613e-06
-8.70028e-08
6.21284e-06
-9.36709e-08
6.25076e-06
-1.16922e-07
6.29014e-06
-1.36692e-07
6.34229e-06
-1.63649e-07
6.37097e-06
-1.72388e-07
6.22532e-06
-2.20027e-08
6.12989e-06
1.95247e-07
6.11401e-06
1.9241e-07
6.10281e-06
1.80862e-07
1.50783e-07
6.14157e-06
6.63511e-06
-5.94645e-09
6.64192e-06
4.87756e-09
6.62976e-06
2.77682e-08
6.64285e-06
-3.96783e-09
6.63477e-06
4.4372e-10
6.64436e-06
-2.8806e-08
6.64361e-06
-1.72435e-08
6.6596e-06
-7.17881e-08
6.66646e-06
-6.17875e-08
6.6902e-06
-1.10751e-07
6.71084e-06
-1.14302e-07
6.75526e-06
-1.61351e-07
6.80044e-06
-1.81866e-07
6.848e-06
-2.11214e-07
6.8064e-06
-1.30782e-07
6.62864e-06
1.55752e-07
6.60849e-06
2.15396e-07
6.59115e-06
2.0975e-07
6.56044e-06
2.11582e-07
-1.90092e-07
6.90131e-06
7.16508e-06
-4.60078e-09
7.17123e-06
-1.26652e-09
7.16036e-06
3.86372e-08
7.17217e-06
-1.57804e-08
7.16539e-06
7.2224e-09
7.17267e-06
-3.608e-08
7.17583e-06
-2.04032e-08
7.18901e-06
-8.4968e-08
7.19958e-06
-7.23588e-08
7.22343e-06
-1.34598e-07
7.24882e-06
-1.39699e-07
7.29621e-06
-2.08738e-07
7.33602e-06
-2.21674e-07
7.34677e-06
-2.21968e-07
7.1648e-06
5.11885e-08
7.13924e-06
1.81309e-07
7.1279e-06
2.26737e-07
7.10565e-06
2.32002e-07
7.06877e-06
2.48464e-07
-2.83762e-07
7.16244e-06
7.7386e-06
-4.6016e-09
7.73893e-06
-1.5916e-09
7.73773e-06
3.98329e-08
7.74031e-06
-1.83514e-08
7.74175e-06
5.77823e-09
7.74133e-06
-3.5661e-08
7.75315e-06
-3.22236e-08
7.75916e-06
-9.09783e-08
7.77744e-06
-9.06403e-08
7.79729e-06
-1.54448e-07
7.82934e-06
-1.71746e-07
7.86659e-06
-2.4599e-07
7.87817e-06
-2.33249e-07
7.76598e-06
-1.09779e-07
7.69666e-06
1.20508e-07
7.69496e-06
1.83008e-07
7.69341e-06
2.28286e-07
7.67573e-06
2.49685e-07
7.60876e-06
3.15426e-07
-4.04321e-07
7.72932e-06
8.35907e-06
-7.21126e-09
8.34765e-06
9.83055e-09
8.36533e-06
2.21555e-08
8.35102e-06
-4.04493e-09
8.3675e-06
-1.07005e-08
8.35395e-06
-2.2118e-08
8.37912e-06
-5.73863e-08
8.37333e-06
-8.51863e-08
8.40385e-06
-1.21168e-07
8.41265e-06
-1.63242e-07
8.45226e-06
-2.11362e-07
8.45233e-06
-2.46058e-07
8.41874e-06
-1.99662e-07
8.30702e-06
1.94608e-09
8.29342e-06
1.34101e-07
8.29433e-06
1.82106e-07
8.30695e-06
2.15666e-07
8.30957e-06
2.47065e-07
8.79819e-06
-1.73197e-07
-3.80574e-07
8.77444e-06
9.02787e-06
-1.14383e-08
9.00851e-06
2.91927e-08
9.03925e-06
-8.58258e-09
9.01411e-06
2.10983e-08
9.03937e-06
-3.59636e-08
9.01939e-06
-2.13867e-09
9.05108e-06
-8.90763e-08
9.03927e-06
-7.33732e-08
9.0761e-06
-1.58004e-07
9.07494e-06
-1.6208e-07
9.10928e-06
-2.45705e-07
9.07507e-06
-2.1184e-07
9.00957e-06
-1.34166e-07
8.93454e-06
7.69794e-08
8.93857e-06
1.30074e-07
8.94308e-06
1.77594e-07
8.969e-06
1.89746e-07
9.02381e-06
1.92251e-07
9.4143e-06
-5.63688e-07
-4.65612e-07
9.49934e-06
9.74663e-06
-1.39654e-08
9.73322e-06
4.26026e-08
9.75588e-06
-3.1246e-08
9.73951e-06
3.74696e-08
9.75475e-06
-5.1201e-08
9.74672e-06
5.88889e-09
9.76667e-06
-1.09029e-07
9.76557e-06
-7.22633e-08
9.79009e-06
-1.82532e-07
9.79203e-06
-1.64021e-07
9.7973e-06
-2.50965e-07
9.74902e-06
-1.63562e-07
9.67024e-06
-5.53858e-08
9.63087e-06
1.16343e-07
9.62971e-06
1.31234e-07
9.64378e-06
1.63522e-07
9.70287e-06
1.30661e-07
1.03275e-05
-4.3236e-07
1.02899e-05
-5.26115e-07
-4.25637e-07
1.02499e-05
1.0521e-05
-1.29204e-08
1.05222e-05
4.13889e-08
1.05232e-05
-3.21961e-08
1.05285e-05
3.21303e-08
1.05224e-05
-4.5095e-08
1.05368e-05
-8.5089e-09
1.05344e-05
-1.0659e-07
1.05528e-05
-9.06919e-08
1.05529e-05
-1.8265e-07
1.05633e-05
-1.74423e-07
1.05319e-05
-2.19525e-07
1.04775e-05
-1.09163e-07
1.04045e-05
1.76017e-08
1.03904e-05
1.30475e-07
1.03778e-05
1.43776e-07
1.03798e-05
1.61514e-07
1.0537e-05
-2.64646e-08
1.07763e-05
-6.71722e-07
1.06494e-05
-3.9914e-07
-4.1946e-07
1.06432e-05
1.1359e-05
-9.7453e-09
1.13703e-05
3.01124e-08
1.13564e-05
-1.82737e-08
1.13763e-05
1.21402e-08
1.13575e-05
-2.62305e-08
1.13844e-05
-3.54088e-08
1.13683e-05
-9.04647e-08
1.13953e-05
-1.17707e-07
1.13774e-05
-1.64765e-07
1.13839e-05
-1.80929e-07
1.13264e-05
-1.62088e-07
1.12701e-05
-5.27712e-08
1.12119e-05
7.57839e-08
1.12079e-05
1.34432e-07
1.11943e-05
1.57354e-07
1.11744e-05
1.8148e-07
1.14017e-05
-2.53741e-07
1.12792e-05
-5.49283e-07
1.13361e-05
-4.55989e-07
-4.70002e-07
1.13866e-05
1.22663e-05
-6.70133e-09
1.2279e-05
1.74412e-08
1.22645e-05
-3.76438e-09
1.22836e-05
-7.02111e-09
1.22681e-05
-1.06924e-08
1.229e-05
-5.73449e-08
1.22754e-05
-7.58914e-08
1.22927e-05
-1.34996e-07
1.22697e-05
-1.41756e-07
1.22565e-05
-1.6772e-07
1.21898e-05
-9.53429e-08
1.21345e-05
2.49377e-09
1.20923e-05
1.17979e-07
1.20823e-05
1.44391e-07
1.20661e-05
1.73583e-07
1.20685e-05
1.79057e-07
1.22934e-05
-4.78641e-07
1.22457e-05
-5.0159e-07
1.227e-05
-4.80227e-07
-5.09744e-07
1.23097e-05
1.32474e-05
-5.20593e-09
1.32554e-05
9.44799e-09
1.32507e-05
9.99221e-10
1.32577e-05
-1.40156e-08
1.32563e-05
-9.3298e-09
1.32612e-05
-6.22082e-08
1.32576e-05
-7.23803e-08
1.32527e-05
-1.30027e-07
1.32324e-05
-1.21461e-07
1.31917e-05
-1.27044e-07
1.31296e-05
-3.31859e-08
1.30747e-05
5.73656e-08
1.30464e-05
1.46283e-07
1.30224e-05
1.68361e-07
1.29931e-05
2.02844e-07
1.31017e-05
7.0517e-08
1.32325e-05
-6.09485e-07
1.32672e-05
-5.36298e-07
1.32917e-05
-5.04656e-07
-5.54146e-07
1.33361e-05
1.43067e-05
-5.17145e-09
1.43097e-05
6.46923e-09
1.43151e-05
-4.44627e-09
1.431e-05
-8.85653e-09
1.43208e-05
-2.01985e-08
1.43096e-05
-5.09835e-08
1.43141e-05
-7.68771e-08
1.42872e-05
-1.03115e-07
1.42659e-05
-1.00212e-07
1.42036e-05
-6.46912e-08
1.415e-05
2.03693e-08
1.40953e-05
1.12107e-07
1.4074e-05
1.67561e-07
1.40421e-05
2.00262e-07
1.40058e-05
2.39193e-07
1.42709e-05
-1.94631e-07
1.42969e-05
-6.3547e-07
1.4344e-05
-5.83437e-07
1.43847e-05
-5.45295e-07
-6.07178e-07
1.44377e-05
1.54487e-05
-4.87442e-09
1.54522e-05
2.97019e-09
1.54585e-05
-1.07304e-08
1.54522e-05
-2.59554e-09
1.54617e-05
-2.97202e-08
1.54472e-05
-3.6449e-08
1.54448e-05
-7.44201e-08
1.5408e-05
-6.63906e-08
1.53736e-05
-6.57489e-08
1.53055e-05
3.34613e-09
1.52542e-05
7.16701e-08
1.52039e-05
1.62396e-07
1.51765e-05
1.95007e-07
1.51408e-05
2.35958e-07
1.51762e-05
2.03749e-07
1.54692e-05
-4.8755e-07
1.54659e-05
-6.32256e-07
1.55015e-05
-6.18945e-07
1.55494e-05
-5.93194e-07
-6.68854e-07
1.5611e-05
1.66805e-05
-2.92417e-09
1.66887e-05
-5.18842e-09
1.66882e-05
-1.02377e-08
1.66901e-05
-4.55984e-09
1.66869e-05
-2.64847e-08
1.66796e-05
-2.9156e-08
1.66578e-05
-5.2579e-08
1.66219e-05
-3.05206e-08
1.65672e-05
-1.10027e-08
1.65062e-05
6.43129e-08
1.64484e-05
1.29489e-07
1.64062e-05
2.04581e-07
1.63667e-05
2.34492e-07
1.63359e-05
2.66776e-07
1.65329e-05
6.68605e-09
1.66871e-05
-6.41681e-07
1.67157e-05
-6.609e-07
1.67511e-05
-6.54289e-07
1.68014e-05
-6.43578e-07
-7.37191e-07
1.68698e-05
1.80116e-05
-1.14559e-10
1.80215e-05
-1.50625e-08
1.80174e-05
-6.20845e-09
1.80242e-05
-1.13076e-08
1.80113e-05
-1.35717e-08
1.80063e-05
-2.42111e-08
1.7969e-05
-1.52994e-08
1.79319e-05
6.67367e-09
1.78642e-05
5.66116e-08
1.7808e-05
1.20542e-07
1.77442e-05
1.9329e-07
1.77044e-05
2.44354e-07
1.76627e-05
2.76216e-07
1.76851e-05
2.44416e-07
1.79901e-05
-2.98301e-07
1.80133e-05
-6.64934e-07
1.80503e-05
-6.97858e-07
1.80957e-05
-6.99767e-07
1.81523e-05
-7.00122e-07
-8.12365e-07
1.82275e-05
1.94508e-05
1.81605e-09
1.9457e-05
-2.12942e-08
1.94564e-05
-5.60064e-09
1.94582e-05
-1.31495e-08
1.94462e-05
-1.59164e-09
1.94311e-05
-9.02737e-09
1.93913e-05
2.44623e-08
1.93439e-05
5.41097e-08
1.92781e-05
1.2241e-07
1.92163e-05
1.82286e-07
1.91548e-05
2.54787e-07
1.911e-05
2.8922e-07
1.90845e-05
3.01669e-07
1.92465e-05
8.24301e-08
1.9449e-05
-5.008e-07
1.94579e-05
-6.73879e-07
1.94906e-05
-7.30487e-07
1.95443e-05
-7.53523e-07
1.96103e-05
-7.66078e-07
-8.96968e-07
1.96949e-05
2.1005e-05
2.59588e-09
2.10069e-05
-2.31298e-08
2.10091e-05
-7.87713e-09
2.1004e-05
-8.05367e-09
2.0995e-05
7.46114e-09
2.09674e-05
1.85766e-08
2.09299e-05
6.19709e-08
2.08733e-05
1.10705e-07
2.08139e-05
1.81748e-07
2.07472e-05
2.49046e-07
2.06917e-05
3.10288e-07
2.06486e-05
3.32289e-07
2.06857e-05
2.6462e-07
2.09255e-05
-1.57394e-07
2.09851e-05
-5.60376e-07
2.10054e-05
-6.94244e-07
2.10444e-05
-7.69484e-07
2.1107e-05
-8.16056e-07
2.11832e-05
-8.42329e-07
-9.92234e-07
2.12785e-05
2.26828e-05
2.754e-09
2.2682e-05
-2.24141e-08
2.26821e-05
-7.94796e-09
2.26743e-05
-2.65083e-10
2.26623e-05
1.95067e-08
2.26305e-05
5.03766e-08
2.25914e-05
1.0104e-07
2.25365e-05
1.65581e-07
2.24803e-05
2.3803e-07
2.24195e-05
3.09828e-07
2.2371e-05
3.58809e-07
2.23511e-05
3.52187e-07
2.24819e-05
1.33751e-07
2.26334e-05
-3.08901e-07
2.26453e-05
-5.72283e-07
2.26693e-05
-7.1822e-07
2.27199e-05
-8.20024e-07
2.27918e-05
-8.88011e-07
2.28761e-05
-9.2662e-07
-1.09424e-06
2.29781e-05
2.44948e-05
1.8861e-09
2.44908e-05
-1.83985e-08
2.44873e-05
-4.47663e-09
2.44782e-05
8.87299e-09
2.44611e-05
3.66414e-08
2.44305e-05
8.09278e-08
2.43902e-05
1.41306e-07
2.43435e-05
2.12331e-07
2.42926e-05
2.88906e-07
2.42469e-05
3.55568e-07
2.42166e-05
3.89091e-07
2.42489e-05
3.19899e-07
2.43853e-05
-2.68099e-09
2.44314e-05
-3.55009e-07
2.44364e-05
-5.77221e-07
2.44694e-05
-7.51286e-07
2.4532e-05
-8.82628e-07
2.46107e-05
-9.66644e-07
2.46981e-05
-1.01404e-06
-1.19703e-06
2.48009e-05
2.64515e-05
-3.57214e-11
2.64432e-05
-1.00713e-08
2.64371e-05
1.58216e-09
2.6426e-05
1.99829e-08
2.6406e-05
5.66322e-08
2.63774e-05
1.09526e-07
2.63409e-05
1.77834e-07
2.63032e-05
2.49969e-07
2.62665e-05
3.25675e-07
2.62438e-05
3.78234e-07
2.62494e-05
3.83453e-07
2.63185e-05
2.50855e-07
2.63769e-05
-6.10974e-08
2.63683e-05
-3.46367e-07
2.63761e-05
-5.85026e-07
2.6427e-05
-8.02267e-07
2.65039e-05
-9.59446e-07
2.65899e-05
-1.0527e-06
2.66803e-05
-1.10442e-06
-1.30087e-06
2.67841e-05
2.85624e-05
-1.15182e-09
2.85526e-05
-2.11816e-10
2.85432e-05
1.09651e-08
2.85311e-05
3.20497e-08
2.85097e-05
7.80427e-08
2.84843e-05
1.34914e-07
2.84548e-05
2.07381e-07
2.84298e-05
2.7495e-07
2.84146e-05
3.40891e-07
2.84232e-05
3.69663e-07
2.84648e-05
3.41786e-07
2.85215e-05
1.94191e-07
2.85032e-05
-4.28055e-08
2.84664e-05
-3.09595e-07
2.84879e-05
-6.0649e-07
2.85643e-05
-8.78641e-07
2.86588e-05
-1.05401e-06
2.87559e-05
-1.1498e-06
2.88515e-05
-1.19996e-06
-1.40953e-06
2.89601e-05
3.08397e-05
8.72555e-10
3.08331e-05
6.3359e-09
3.08191e-05
2.49746e-08
3.0807e-05
4.41558e-08
3.07843e-05
1.00689e-07
3.07649e-05
1.544e-07
3.07454e-05
2.26881e-07
3.07391e-05
2.81227e-07
3.07482e-05
3.31755e-07
3.07859e-05
3.32006e-07
3.08403e-05
2.87335e-07
3.08613e-05
1.73259e-07
3.08004e-05
1.80561e-08
3.07506e-05
-2.59828e-07
3.07907e-05
-6.46556e-07
3.08896e-05
-9.77561e-07
3.09996e-05
-1.16395e-06
3.11083e-05
-1.25854e-06
3.12115e-05
-1.30317e-06
-1.52839e-06
3.13304e-05
3.3299e-05
5.97002e-09
3.32968e-05
8.57427e-09
3.32785e-05
4.32198e-08
3.32666e-05
5.61186e-08
3.32442e-05
1.23007e-07
3.32338e-05
1.64883e-07
3.32286e-05
2.31988e-07
3.32439e-05
2.66011e-07
3.32756e-05
3.00051e-07
3.33277e-05
2.7985e-07
3.33704e-05
2.44696e-07
3.33637e-05
1.79955e-07
3.32941e-05
8.75913e-08
3.32425e-05
-2.08242e-07
3.32875e-05
-6.91472e-07
3.33929e-05
-1.083e-06
3.3513e-05
-1.28408e-06
3.36352e-05
-1.38066e-06
3.37535e-05
-1.42156e-06
-1.66772e-06
3.38929e-05
3.59581e-05
1.10038e-08
3.5955e-05
1.16981e-08
3.59366e-05
6.15841e-08
3.59236e-05
6.9123e-08
3.59067e-05
1.39901e-07
3.5907e-05
1.64592e-07
3.59204e-05
2.18585e-07
3.59538e-05
2.32636e-07
3.6003e-05
2.50861e-07
3.60537e-05
2.29096e-07
3.6079e-05
2.19387e-07
3.60611e-05
1.97929e-07
3.6012e-05
1.3663e-07
3.5962e-05
-1.58183e-07
3.5981e-05
-7.10534e-07
3.60725e-05
-1.17452e-06
3.62021e-05
-1.41362e-06
3.63463e-05
-1.52492e-06
3.64949e-05
-1.57015e-06
-1.84031e-06
3.66675e-05
3.88333e-05
1.22027e-08
3.88229e-05
2.20485e-08
3.88125e-05
7.20282e-08
3.87935e-05
8.80688e-08
3.87913e-05
1.42081e-07
3.88002e-05
1.55735e-07
3.88343e-05
1.84449e-07
3.88777e-05
1.89232e-07
3.89375e-05
1.91127e-07
3.89797e-05
1.86832e-07
3.90047e-05
1.94411e-07
3.90034e-05
1.99255e-07
3.89968e-05
1.43185e-07
3.89509e-05
-1.12257e-07
3.88996e-05
-6.5923e-07
3.89459e-05
-1.22087e-06
3.90778e-05
-1.5455e-06
3.92471e-05
-1.69423e-06
3.94378e-05
-1.76083e-06
-2.05749e-06
3.9655e-05
4.194e-05
7.24484e-09
4.19196e-05
4.24237e-08
4.19234e-05
6.81939e-08
4.18977e-05
1.13836e-07
4.19177e-05
1.22047e-07
4.19289e-05
1.4452e-07
4.19784e-05
1.34999e-07
4.20231e-05
1.44535e-07
4.20878e-05
1.26441e-07
4.21315e-05
1.43128e-07
4.21828e-05
1.43118e-07
4.22361e-05
1.45872e-07
4.23123e-05
6.70487e-08
4.23129e-05
-1.12883e-07
4.21638e-05
-5.10093e-07
4.20602e-05
-1.11727e-06
4.21513e-05
-1.63659e-06
4.23285e-05
-1.87141e-06
4.2543e-05
-1.97535e-06
-2.29144e-06
4.27769e-05
4.52948e-05
-4.42203e-09
4.52656e-05
7.16234e-08
4.52807e-05
5.31093e-08
4.5262e-05
1.32592e-07
4.52973e-05
8.67474e-08
4.53086e-05
1.33196e-07
4.53592e-05
8.43335e-08
4.54014e-05
1.02419e-07
4.54685e-05
5.92761e-08
4.55362e-05
7.54901e-08
4.56387e-05
4.05543e-08
4.57664e-05
1.8201e-08
4.59303e-05
-9.68486e-08
4.60722e-05
-2.54778e-07
4.60674e-05
-5.0527e-07
4.58045e-05
-8.54394e-07
4.55867e-05
-1.41875e-06
4.56036e-05
-1.88833e-06
4.57478e-05
-2.11956e-06
-2.48302e-06
4.59394e-05
4.89138e-05
-1.96658e-08
4.88834e-05
1.02102e-07
4.89002e-05
3.6282e-08
4.89052e-05
1.27627e-07
4.89355e-05
5.64463e-08
4.89538e-05
1.14837e-07
4.8994e-05
4.41414e-08
4.90349e-05
6.14902e-08
4.91037e-05
-9.45913e-09
4.92094e-05
-3.02248e-08
4.93761e-05
-1.26137e-07
4.95882e-05
-1.93904e-07
4.98164e-05
-3.25063e-07
5.00472e-05
-4.85609e-07
5.02967e-05
-7.5477e-07
5.04976e-05
-1.05527e-06
5.04765e-05
-1.3976e-06
5.03328e-05
-1.74469e-06
5.02426e-05
-2.02938e-06
-2.49072e-06
5.02503e-05
5.28112e-05
-2.81634e-08
5.27977e-05
1.15582e-07
5.28098e-05
2.42073e-08
5.28381e-05
9.93446e-08
5.2852e-05
4.25792e-08
5.28832e-05
8.35932e-08
5.29101e-05
1.71876e-08
5.29561e-05
1.55696e-08
5.30235e-05
-7.69331e-08
5.31505e-05
-1.57185e-07
5.3351e-05
-3.26632e-07
5.36475e-05
-4.90377e-07
5.39949e-05
-6.72474e-07
5.432e-05
-8.10716e-07
5.45793e-05
-1.01412e-06
5.48023e-05
-1.27828e-06
5.49719e-05
-1.56714e-06
5.50347e-05
-1.80749e-06
5.50106e-05
-2.00527e-06
-2.48687e-06
5.50067e-05
5.70101e-05
-1.97818e-08
5.70301e-05
9.56346e-08
5.70388e-05
1.55381e-08
5.70747e-05
6.34086e-08
5.70852e-05
3.20862e-08
5.71258e-05
4.29324e-08
5.7148e-05
-4.96211e-09
5.72019e-05
-3.82954e-08
5.72638e-05
-1.38895e-07
5.73722e-05
-2.65534e-07
5.75168e-05
-4.71303e-07
5.77615e-05
-7.35022e-07
5.81542e-05
-1.06522e-06
5.86901e-05
-1.34654e-06
5.91617e-05
-1.4858e-06
5.93988e-05
-1.51537e-06
5.94505e-05
-1.61886e-06
5.94373e-05
-1.79428e-06
5.9392e-05
-1.95994e-06
-2.51251e-06
5.94176e-05
6.15476e-05
3.5603e-09
6.16018e-05
4.14372e-08
6.16068e-05
1.05599e-08
6.16444e-05
2.57946e-08
6.16636e-05
1.28664e-08
6.17133e-05
-6.81182e-09
6.17418e-05
-3.34649e-08
6.17977e-05
-9.41936e-08
6.18437e-05
-1.84842e-07
6.19131e-05
-3.34913e-07
6.19671e-05
-5.25388e-07
6.20194e-05
-7.87321e-07
6.20811e-05
-1.12685e-06
6.23028e-05
-1.56824e-06
6.28356e-05
-2.01865e-06
6.36256e-05
-2.30533e-06
6.43212e-05
-2.3145e-06
6.46777e-05
-2.15071e-06
6.4709e-05
-1.99129e-06
-2.49259e-06
6.46891e-05
6.64569e-05
3.3486e-08
6.65394e-05
-4.11043e-08
6.65337e-05
1.63127e-08
6.65873e-05
-2.78698e-08
6.66074e-05
-7.15595e-09
6.66715e-05
-7.09212e-08
6.66999e-05
-6.18585e-08
6.67474e-05
-1.41702e-07
6.67546e-05
-1.92088e-07
6.67679e-05
-3.48157e-07
6.67521e-05
-5.09611e-07
6.6746e-05
-7.81207e-07
6.66874e-05
-1.06833e-06
6.65457e-05
-1.42646e-06
6.63167e-05
-1.78967e-06
6.62084e-05
-2.19707e-06
6.64132e-05
-2.51928e-06
6.69782e-05
-2.71569e-06
6.77371e-05
-2.75024e-06
-3.11779e-06
6.83623e-05
7.17764e-05
5.2199e-08
7.18457e-05
-1.10375e-07
7.18579e-05
4.13954e-09
7.19184e-05
-8.8376e-08
7.19552e-05
-4.3912e-08
7.20147e-05
-1.30506e-07
7.2045e-05
-9.21467e-08
7.20687e-05
-1.65335e-07
7.20489e-05
-1.72362e-07
7.19952e-05
-2.94395e-07
7.18889e-05
-4.03324e-07
7.17794e-05
-6.71764e-07
7.17193e-05
-1.00818e-06
7.17767e-05
-1.48386e-06
7.18879e-05
-1.90088e-06
7.19489e-05
-2.25802e-06
7.19479e-05
-2.51831e-06
7.20534e-05
-2.82118e-06
7.23654e-05
-3.06226e-06
-3.80268e-06
7.30503e-05
7.75216e-05
7.75621e-05
7.76097e-05
7.76674e-05
7.77264e-05
7.77696e-05
7.77998e-05
7.78013e-05
7.77719e-05
7.76629e-05
7.74501e-05
7.71335e-05
7.68683e-05
7.68888e-05
7.71913e-05
7.75365e-05
7.77308e-05
7.76034e-05
7.70848e-05
7.58708e-05
3.8367e-06
9.95381e-08
3.74809e-06
8.86036e-08
3.65415e-06
9.39461e-08
3.55727e-06
9.68766e-08
3.45777e-06
9.95028e-08
3.35573e-06
1.02034e-07
3.25181e-06
1.03918e-07
3.14616e-06
1.05656e-07
3.03913e-06
1.07032e-07
2.93093e-06
1.082e-07
2.82157e-06
1.09353e-07
2.71097e-06
1.106e-07
2.59902e-06
1.11958e-07
2.4854e-06
1.13616e-07
2.3695e-06
1.15904e-07
2.25159e-06
1.17905e-07
2.13133e-06
1.20262e-07
2.00914e-06
1.22189e-07
1.88581e-06
1.23326e-07
1.76153e-06
1.2428e-07
1.63741e-06
1.24127e-07
1.51477e-06
1.22642e-07
1.39545e-06
1.1931e-07
1.28164e-06
1.13819e-07
1.17755e-06
1.04083e-07
1.08729e-06
9.02595e-08
1.01391e-06
7.33856e-08
9.57864e-07
5.60442e-08
9.17015e-07
4.08489e-08
8.89057e-07
2.79581e-08
8.68774e-07
2.02828e-08
8.53831e-07
1.49429e-08
8.42557e-07
1.1274e-08
8.31825e-07
1.07326e-08
8.23036e-07
8.7893e-09
8.14636e-07
8.39983e-09
8.05679e-07
8.9563e-09
7.97541e-07
8.13887e-09
7.87865e-07
9.67558e-09
7.77759e-07
1.01058e-08
7.67781e-07
9.9779e-09
7.563e-07
1.14809e-08
7.45356e-07
1.09442e-08
7.34842e-07
1.05136e-08
7.24094e-07
1.07485e-08
7.13856e-07
1.02379e-08
7.02974e-07
1.08822e-08
6.91831e-07
1.1143e-08
6.8199e-07
9.84074e-09
6.72531e-07
9.45859e-09
6.62564e-07
9.96725e-09
6.53155e-07
9.40937e-09
6.44495e-07
8.65964e-09
6.35776e-07
8.71892e-09
6.27728e-07
8.04825e-09
6.19893e-07
7.83474e-09
6.11687e-07
8.20674e-09
6.04994e-07
6.69285e-09
5.98945e-07
6.04864e-09
5.9149e-07
7.45478e-09
5.84863e-07
6.62746e-09
5.79943e-07
4.91992e-09
5.7455e-07
5.39262e-09
5.68908e-07
5.64197e-09
5.64183e-07
4.72574e-09
5.60093e-07
4.0891e-09
5.56246e-07
3.84781e-09
5.52395e-07
3.85048e-09
5.48785e-07
3.60976e-09
5.45787e-07
2.99803e-09
5.43107e-07
2.68011e-09
5.40512e-07
2.59519e-09
5.38211e-07
2.30119e-09
5.36115e-07
2.09605e-09
5.34285e-07
1.82992e-09
5.32743e-07
1.54198e-09
5.31244e-07
1.49887e-09
5.29848e-07
1.39654e-09
5.28795e-07
1.05243e-09
5.27877e-07
9.17814e-10
5.26963e-07
9.14122e-10
5.26206e-07
7.57026e-10
5.25633e-07
5.731e-10
5.25086e-07
5.47314e-10
5.24594e-07
4.91308e-10
5.24224e-07
3.70205e-10
5.23922e-07
3.02671e-10
5.23659e-07
2.6238e-10
5.23445e-07
2.14001e-10
5.23283e-07
1.62146e-10
5.23147e-07
1.35552e-10
5.23032e-07
1.15111e-10
5.22919e-07
1.13231e-10
5.22826e-07
9.30695e-11
5.22721e-07
1.05015e-10
5.22608e-07
1.12911e-10
5.22604e-07
4.44431e-12
5.22581e-07
2.30274e-11
5.23088e-07
-5.07648e-10
-4.9193e-10
4.23522e-06
1.02339e-07
4.24468e-06
7.91447e-08
4.24542e-06
9.32112e-08
4.24022e-06
1.02073e-07
4.22963e-06
1.10096e-07
4.21489e-06
1.16773e-07
4.19677e-06
1.22039e-07
4.17621e-06
1.26212e-07
4.15373e-06
1.29506e-07
4.12924e-06
1.32692e-07
4.10284e-06
1.35758e-07
4.07333e-06
1.40112e-07
4.04117e-06
1.44113e-07
4.0049e-06
1.49883e-07
3.96509e-06
1.55717e-07
3.92069e-06
1.62302e-07
3.87205e-06
1.68903e-07
3.81901e-06
1.75227e-07
3.76138e-06
1.80955e-07
3.69965e-06
1.86015e-07
3.63278e-06
1.91e-07
3.56317e-06
1.92251e-07
3.48959e-06
1.92892e-07
3.41476e-06
1.88643e-07
3.3395e-06
1.7934e-07
3.26543e-06
1.6433e-07
3.19646e-06
1.42364e-07
3.13034e-06
1.22155e-07
3.07135e-06
9.98434e-08
3.0179e-06
8.14135e-08
2.96739e-06
7.07879e-08
2.92224e-06
6.00904e-08
2.87698e-06
5.65353e-08
2.8331e-06
5.46113e-08
2.79196e-06
4.993e-08
2.74945e-06
5.09093e-08
2.70959e-06
4.88191e-08
2.67023e-06
4.74941e-08
2.62915e-06
5.0758e-08
2.59069e-06
4.85673e-08
2.55141e-06
4.92627e-08
2.5118e-06
5.10826e-08
2.47425e-06
4.85014e-08
2.43602e-06
4.87425e-08
2.39979e-06
4.69725e-08
2.36417e-06
4.58608e-08
2.32684e-06
4.82161e-08
2.29211e-06
4.58648e-08
2.2585e-06
4.34558e-08
2.22464e-06
4.33143e-08
2.193e-06
4.16125e-08
2.16114e-06
4.12692e-08
2.12984e-06
3.99554e-08
2.10179e-06
3.67673e-08
2.07342e-06
3.64276e-08
2.04452e-06
3.67268e-08
2.01901e-06
3.3722e-08
1.99491e-06
3.07911e-08
1.96999e-06
3.09679e-08
1.94664e-06
3.08011e-08
1.92531e-06
2.79591e-08
1.90438e-06
2.58546e-08
1.88447e-06
2.53055e-08
1.86612e-06
2.39831e-08
1.84859e-06
2.22581e-08
1.83226e-06
2.04217e-08
1.81742e-06
1.86887e-08
1.8032e-06
1.80718e-08
1.78974e-06
1.70625e-08
1.77776e-06
1.49789e-08
1.76683e-06
1.36132e-08
1.75654e-06
1.28846e-08
1.74714e-06
1.17008e-08
1.73868e-06
1.05601e-08
1.73102e-06
9.48761e-09
1.72408e-06
8.47703e-09
1.71771e-06
7.87551e-09
1.71202e-06
7.0824e-09
1.70705e-06
6.02262e-09
1.70265e-06
5.3235e-09
1.69864e-06
4.92358e-09
1.6952e-06
4.19626e-09
1.69216e-06
3.60959e-09
1.68953e-06
3.18177e-09
1.68715e-06
2.86529e-09
1.68525e-06
2.2774e-09
1.68351e-06
2.03918e-09
1.68216e-06
1.60832e-09
1.6809e-06
1.47332e-09
1.68002e-06
1.0436e-09
1.67915e-06
1.00857e-09
1.67857e-06
6.96438e-10
1.67799e-06
6.89093e-10
1.67754e-06
5.49299e-10
1.67726e-06
3.85213e-10
1.67666e-06
7.12185e-10
1.67689e-06
-2.25031e-10
1.67592e-06
9.90355e-10
1.67711e-06
-1.69592e-09
-4.98907e-10
4.57057e-06
9.3897e-08
4.58411e-06
6.56009e-08
4.59254e-06
8.47847e-08
4.59619e-06
9.84229e-08
4.59583e-06
1.10452e-07
4.59306e-06
1.19547e-07
4.58914e-06
1.25959e-07
4.58504e-06
1.30306e-07
4.5818e-06
1.32749e-07
4.57876e-06
1.35733e-07
4.57642e-06
1.38096e-07
4.57326e-06
1.43271e-07
4.5698e-06
1.47577e-07
4.5647e-06
1.54982e-07
4.5585e-06
1.6192e-07
4.55063e-06
1.70174e-07
4.54077e-06
1.78759e-07
4.52974e-06
1.8626e-07
4.51608e-06
1.94609e-07
4.50102e-06
2.0108e-07
4.48298e-06
2.09041e-07
4.46332e-06
2.11909e-07
4.44152e-06
2.14695e-07
4.41751e-06
2.12647e-07
4.39254e-06
2.04309e-07
4.36507e-06
1.91798e-07
4.33769e-06
1.69749e-07
4.309e-06
1.50841e-07
4.28078e-06
1.28062e-07
4.25493e-06
1.07264e-07
4.22822e-06
9.75012e-08
4.20381e-06
8.44976e-08
4.1787e-06
8.16501e-08
4.15185e-06
8.14613e-08
4.12714e-06
7.4641e-08
4.09993e-06
7.81128e-08
4.0732e-06
7.55576e-08
4.04719e-06
7.34988e-08
4.0181e-06
7.98465e-08
3.99057e-06
7.60971e-08
3.96199e-06
7.7848e-08
3.93149e-06
8.15768e-08
3.90215e-06
7.78437e-08
3.87144e-06
7.94519e-08
3.84077e-06
7.76448e-08
3.8102e-06
7.64258e-08
3.77753e-06
8.08878e-08
3.74501e-06
7.83867e-08
3.71348e-06
7.4982e-08
3.68111e-06
7.56879e-08
3.64841e-06
7.43142e-08
3.6164e-06
7.32817e-08
3.58361e-06
7.27396e-08
3.55126e-06
6.91195e-08
3.52011e-06
6.75815e-08
3.48701e-06
6.98203e-08
3.45463e-06
6.61026e-08
3.42531e-06
6.01136e-08
3.39432e-06
6.19606e-08
3.36262e-06
6.24991e-08
3.3339e-06
5.66813e-08
3.3054e-06
5.43483e-08
3.27629e-06
5.44162e-08
3.24895e-06
5.13284e-08
3.22273e-06
4.8479e-08
3.19695e-06
4.61934e-08
3.1724e-06
4.3245e-08
3.14891e-06
4.15552e-08
3.12623e-06
3.97518e-08
3.10485e-06
3.63539e-08
3.08479e-06
3.36716e-08
3.06573e-06
3.19484e-08
3.04761e-06
2.98162e-08
3.03084e-06
2.73288e-08
3.01535e-06
2.49795e-08
3.00086e-06
2.29703e-08
2.98721e-06
2.15222e-08
2.97481e-06
1.94896e-08
2.96345e-06
1.73763e-08
2.95309e-06
1.5685e-08
2.94356e-06
1.44527e-08
2.93511e-06
1.2649e-08
2.92735e-06
1.13683e-08
2.92045e-06
1.0086e-08
2.91414e-06
9.17032e-09
2.90872e-06
7.69962e-09
2.90377e-06
6.98441e-09
2.89959e-06
5.79418e-09
2.89582e-06
5.24003e-09
2.89267e-06
4.19026e-09
2.88993e-06
3.753e-09
2.88754e-06
3.08295e-09
2.88571e-06
2.52491e-09
2.8838e-06
2.45352e-09
2.88283e-06
1.36034e-09
2.88111e-06
2.433e-09
2.88104e-06
-1.55971e-10
2.87938e-06
2.64533e-09
2.88011e-06
-2.42267e-09
-3.4362e-10
4.93509e-06
6.32162e-08
4.94824e-06
5.24433e-08
4.95833e-06
7.46974e-08
4.96324e-06
9.3514e-08
4.96365e-06
1.1004e-07
4.96125e-06
1.21952e-07
4.95803e-06
1.29176e-07
4.95509e-06
1.33251e-07
4.9538e-06
1.34032e-07
4.95347e-06
1.36063e-07
4.9544e-06
1.37167e-07
4.95558e-06
1.42093e-07
4.9569e-06
1.46264e-07
4.95786e-06
1.54015e-07
4.95842e-06
1.61366e-07
4.95883e-06
1.69759e-07
4.95843e-06
1.79155e-07
4.95844e-06
1.86252e-07
4.9576e-06
1.95451e-07
4.95675e-06
2.01926e-07
4.95542e-06
2.1037e-07
4.9535e-06
2.13835e-07
4.95171e-06
2.16487e-07
4.94863e-06
2.15727e-07
4.9453e-06
2.0763e-07
4.94011e-06
1.96995e-07
4.93327e-06
1.76587e-07
4.92515e-06
1.58962e-07
4.91548e-06
1.37729e-07
4.90681e-06
1.1594e-07
4.89733e-06
1.0698e-07
4.88838e-06
9.34449e-08
4.87967e-06
9.03625e-08
4.86895e-06
9.21823e-08
4.85952e-06
8.40672e-08
4.84889e-06
8.87422e-08
4.83759e-06
8.68557e-08
4.82747e-06
8.36171e-08
4.81523e-06
9.20912e-08
4.8036e-06
8.77257e-08
4.79188e-06
8.95647e-08
4.77833e-06
9.51356e-08
4.76547e-06
9.06974e-08
4.75181e-06
9.31152e-08
4.73742e-06
9.2037e-08
4.72304e-06
9.08052e-08
4.70719e-06
9.67384e-08
4.69067e-06
9.49039e-08
4.67448e-06
9.1167e-08
4.65759e-06
9.25865e-08
4.63959e-06
9.23102e-08
4.62187e-06
9.09986e-08
4.60355e-06
9.10665e-08
4.58442e-06
8.82485e-08
4.56612e-06
8.58744e-08
4.54632e-06
8.96236e-08
4.52546e-06
8.69668e-08
4.50658e-06
7.89909e-08
4.48645e-06
8.20901e-08
4.46449e-06
8.44556e-08
4.44432e-06
7.68548e-08
4.42421e-06
7.44615e-08
4.40276e-06
7.5866e-08
4.3821e-06
7.19829e-08
4.36185e-06
6.87333e-08
4.34121e-06
6.68352e-08
4.32097e-06
6.34838e-08
4.30115e-06
6.13679e-08
4.2814e-06
5.95059e-08
4.26214e-06
5.56099e-08
4.24352e-06
5.23007e-08
4.2254e-06
5.00652e-08
4.20761e-06
4.76019e-08
4.19047e-06
4.44755e-08
4.17411e-06
4.13369e-08
4.15843e-06
3.86453e-08
4.14326e-06
3.66967e-08
4.12893e-06
3.3817e-08
4.11533e-06
3.09831e-08
4.10241e-06
2.85997e-08
4.09019e-06
2.66779e-08
4.0789e-06
2.39336e-08
4.06831e-06
2.19603e-08
4.05844e-06
1.99542e-08
4.04923e-06
1.83841e-08
4.04074e-06
1.61866e-08
4.03293e-06
1.47965e-08
4.02578e-06
1.29412e-08
4.01942e-06
1.16036e-08
4.01356e-06
1.00469e-08
4.00855e-06
8.76556e-09
4.00373e-06
7.905e-09
3.99993e-06
6.32122e-09
3.99593e-06
6.45141e-09
3.99329e-06
4.00676e-09
3.98998e-06
5.74052e-09
3.98846e-06
1.36339e-09
3.98589e-06
5.21238e-09
3.98522e-06
-1.75536e-09
4.50841e-10
5.33099e-06
1.22881e-08
5.34328e-06
4.0153e-08
5.3542e-06
6.37755e-08
5.35973e-06
8.79876e-08
5.36021e-06
1.09556e-07
5.35744e-06
1.24726e-07
5.35384e-06
1.32774e-07
5.35074e-06
1.36352e-07
5.34954e-06
1.35227e-07
5.34964e-06
1.35964e-07
5.35093e-06
1.35879e-07
5.35283e-06
1.40196e-07
5.35469e-06
1.44397e-07
5.35655e-06
1.52163e-07
5.3579e-06
1.60012e-07
5.35937e-06
1.68292e-07
5.36038e-06
1.78138e-07
5.36192e-06
1.84713e-07
5.3633e-06
1.94076e-07
5.36492e-06
2.00308e-07
5.36706e-06
2.08232e-07
5.36901e-06
2.11885e-07
5.37183e-06
2.13667e-07
5.37402e-06
2.13537e-07
5.37626e-06