/*--------------------------------*- C++ -*----------------------------------*\
  =========                 |
  \\      /  F ield         | OpenFOAM: The Open Source CFD Toolbox
   \\    /   O peration     | Website:  https://openfoam.org
    \\  /    A nd           | Version:  6
     \\/     M anipulation  |
\*---------------------------------------------------------------------------*/
FoamFile
{
    version     2.0;
    format      ascii;
    class       volVectorField;
    location    "0.7";
    object      U;
}
// * * * * * * * * * * * * * * * * * * * * * * * * * * * * * * * * * * * * * //

dimensions      [0 1 -1 0 0 0 0];

internalField   nonuniform List<vector> 
4800
(
(0.959725 -9.20406e-05 0)
(1.03978 8.35808e-05 0)
(0.963713 -8.96913e-05 0)
(1.03692 0.00024043 0)
(0.968355 -2.61755e-05 0)
(1.03423 7.91188e-05 0)
(0.97316 -0.000138154 0)
(1.03326 -0.000149007 0)
(0.979289 -0.00018165 0)
(1.03387 6.46931e-06 0)
(0.987037 -7.806e-05 0)
(1.03529 0.000122368 0)
(0.994136 3.83804e-05 0)
(1.03592 7.20088e-05 0)
(1.0001 3.13909e-05 0)
(1.03627 -2.01083e-05 0)
(1.00535 -1.73987e-05 0)
(1.03649 -0.000114664 0)
(1.00834 -4.67214e-05 0)
(1.03477 -7.5369e-05 0)
(0.982548 -0.000160145 0)
(1.01497 0.000438057 0)
(0.987062 -0.0002392 0)
(1.01263 0.000495582 0)
(0.991758 -0.000281871 0)
(1.01021 0.00027455 0)
(0.996089 -0.000344686 0)
(1.01071 0.00011725 0)
(1.00112 -0.000512263 0)
(1.01265 1.5323e-06 0)
(1.00775 -0.000542536 0)
(1.01562 0.000100758 0)
(1.01323 -0.000286845 0)
(1.01823 0.000181393 0)
(1.01724 -0.000116888 0)
(1.02069 0.000190626 0)
(1.02066 -5.18966e-05 0)
(1.02254 7.21418e-05 0)
(1.02209 2.55653e-05 0)
(1.02245 0.000232586 0)
(0.996025 -0.000279087 0)
(1.00265 0.000880677 0)
(0.997591 -0.000391499 0)
(1.00268 0.000845676 0)
(0.999807 -0.000547118 0)
(1.00216 0.000533159 0)
(1.00184 -0.000552355 0)
(1.00484 0.00045497 0)
(1.00517 -0.000897569 0)
(1.0083 -6.46389e-05 0)
(1.01034 -0.0011214 0)
(1.01258 -1.28237e-05 0)
(1.0146 -0.00069757 0)
(1.01622 0.000301413 0)
(1.01768 -0.000297144 0)
(1.01939 0.000459567 0)
(1.02052 -0.000153833 0)
(1.02167 0.000365837 0)
(1.02182 8.89704e-05 0)
(1.02186 0.000710135 0)
(0.99952 -0.000243797 0)
(1.00018 0.000726059 0)
(0.999742 -0.000233949 0)
(1.0009 0.000704016 0)
(1.00107 -0.000449996 0)
(1.00128 0.000325254 0)
(1.0024 -0.000332025 0)
(1.00407 0.000262169 0)
(1.00555 -0.000811686 0)
(1.00783 -0.000534245 0)
(1.01035 -0.00129482 0)
(1.01239 -0.000537593 0)
(1.01454 -0.000823413 0)
(1.01611 -2.34793e-05 0)
(1.01766 -0.000228169 0)
(1.01922 0.000291984 0)
(1.02047 -2.65525e-05 0)
(1.02149 0.000421616 0)
(1.02179 0.000454604 0)
(1.02182 0.0012292 0)
(1.00004 -3.31221e-05 0)
(0.999948 5.77922e-05 0)
(1.00006 2.20283e-05 0)
(1.00057 0.000185037 0)
(1.00116 -0.000248196 0)
(1.00148 -0.000184108 0)
(1.00252 -5.70187e-05 0)
(1.00386 -0.000294785 0)
(1.00558 -0.000611838 0)
(1.00774 -0.00117164 0)
(1.01024 -0.00128679 0)
(1.01245 -0.00124568 0)
(1.01458 -0.000975272 0)
(1.01621 -0.000639925 0)
(1.01781 -0.000309069 0)
(1.01927 -0.000167609 0)
(1.02063 7.86103e-05 0)
(1.02156 0.000352198 0)
(1.022 0.000902856 0)
(1.02197 0.00147569 0)
(1.0001 0.000112647 0)
(0.999946 -0.000277943 0)
(1.00016 4.44055e-05 0)
(1.00045 -2.88405e-05 0)
(1.0011 -0.000280782 0)
(1.00163 -0.000475494 0)
(1.00263 -0.000112564 0)
(1.00375 -0.000750653 0)
(1.00554 -0.000716664 0)
(1.00767 -0.00153564 0)
(1.01015 -0.00144406 0)
(1.01247 -0.00180737 0)
(1.01464 -0.0013816 0)
(1.01629 -0.00133079 0)
(1.01795 -0.000778064 0)
(1.01937 -0.00064707 0)
(1.0208 -4.40992e-05 0)
(1.02174 0.000379472 0)
(1.02222 0.001157 0)
(1.02212 0.00137182 0)
(1.00011 -3.68929e-05 0)
(0.999951 0.000216647 0)
(1.00019 -5.09278e-05 0)
(1.00041 0.000289813 0)
(1.00103 -0.00034987 0)
(1.00169 -0.000345945 0)
(1.00267 -0.000282665 0)
(1.00371 -0.000961176 0)
(1.00548 -0.000884789 0)
(1.00762 -0.00163575 0)
(1.01008 -0.00166003 0)
(1.01246 -0.00214909 0)
(1.01465 -0.00188502 0)
(1.01635 -0.00197833 0)
(1.01805 -0.00134832 0)
(1.01949 -0.00104614 0)
(1.02102 -0.000133694 0)
(1.02197 0.000559997 0)
(1.02239 0.00136976 0)
(1.02218 0.0013868 0)
(1.00011 -0.000333675 0)
(0.999942 0.000831532 0)
(1.00018 9.5109e-05 0)
(1.00038 0.000573374 0)
(1.00097 -0.000114055 0)
(1.00169 -0.000151709 0)
(1.00263 -0.000295806 0)
(1.00367 -0.00107108 0)
(1.00542 -0.000934253 0)
(1.00756 -0.00169967 0)
(1.01 -0.00178392 0)
(1.01241 -0.00241179 0)
(1.01463 -0.00238364 0)
(1.01638 -0.00248725 0)
(1.01815 -0.00185954 0)
(1.01966 -0.00132826 0)
(1.02127 -0.000136371 0)
(1.02221 0.000690524 0)
(1.02252 0.00159961 0)
(1.02216 0.00158231 0)
(1.0001 -0.000286682 0)
(0.999954 0.000319475 0)
(1.00014 0.000670034 0)
(1.00036 1.36367e-05 0)
(1.0009 0.000373154 0)
(1.00165 -0.000468504 0)
(1.00255 -0.000122873 0)
(1.00362 -0.0014538 0)
(1.00535 -0.000909294 0)
(1.00748 -0.00207548 0)
(1.00991 -0.00187868 0)
(1.01233 -0.00296598 0)
(1.01459 -0.00280444 0)
(1.01642 -0.00311266 0)
(1.01828 -0.00224755 0)
(1.01993 -0.00180898 0)
(1.02157 -0.000278275 0)
(1.0225 0.00028674 0)
(1.02269 0.00164131 0)
(1.02221 0.00162728 0)
(1.00008 0.000192311 0)
(1.00004 -0.0011237 0)
(1.00011 0.00125555 0)
(1.00037 -0.00113237 0)
(1.00086 0.000696826 0)
(1.00165 -0.00110006 0)
(1.00247 -8.18457e-05 0)
(1.00359 -0.00198918 0)
(1.00528 -0.00105339 0)
(1.00742 -0.00270154 0)
(1.0098 -0.00217645 0)
(1.01225 -0.00368415 0)
(1.01455 -0.00319255 0)
(1.01652 -0.0037771 0)
(1.01847 -0.00258311 0)
(1.02025 -0.00252237 0)
(1.0219 -0.000859153 0)
(1.02288 -0.00066668 0)
(1.02299 0.00116615 0)
(1.02229 0.00147793 0)
(1.00009 0.00058702 0)
(1.00014 -0.00164533 0)
(1.00016 0.00127567 0)
(1.00038 -0.00147305 0)
(1.00091 0.00058688 0)
(1.00163 -0.00125203 0)
(1.00244 -0.000348735 0)
(1.00355 -0.00210062 0)
(1.00523 -0.00139142 0)
(1.00734 -0.00304434 0)
(1.00972 -0.00262919 0)
(1.01217 -0.00413762 0)
(1.01458 -0.00350986 0)
(1.01665 -0.00415727 0)
(1.01868 -0.00303142 0)
(1.02054 -0.00321608 0)
(1.02221 -0.00195799 0)
(1.0233 -0.00188402 0)
(1.02352 2.10046e-05 0)
(1.02255 0.000782112 0)
(1.00004 -0.000271448 0)
(1.00023 0.000623454 0)
(1.00014 -0.000213527 0)
(1.00041 0.000506103 0)
(1.00089 -0.000778794 0)
(1.00162 0.000270001 0)
(1.00234 -0.00159367 0)
(1.00351 -0.00078963 0)
(1.00511 -0.00257295 0)
(1.00726 -0.00219062 0)
(1.00958 -0.00383511 0)
(1.01212 -0.00353827 0)
(1.01458 -0.0044308 0)
(1.01676 -0.00373276 0)
(1.0188 -0.00424334 0)
(1.02071 -0.00340731 0)
(1.0224 -0.00393254 0)
(1.02373 -0.00285162 0)
(1.02414 -0.00207186 0)
(1.0232 -0.000698604 0)
(0.999881 -0.000847156 0)
(1.00031 0.00240336 0)
(0.999916 -0.00145516 0)
(1.00048 0.0020417 0)
(1.00067 -0.00180578 0)
(1.00165 0.00139204 0)
(1.00208 -0.00252107 0)
(1.00349 0.000133625 0)
(1.00482 -0.00352585 0)
(1.00718 -0.0015438 0)
(1.00931 -0.00480409 0)
(1.01212 -0.00294132 0)
(1.01445 -0.00534391 0)
(1.01683 -0.00356457 0)
(1.01874 -0.00556952 0)
(1.02077 -0.00391409 0)
(1.02239 -0.00583844 0)
(1.02415 -0.00408578 0)
(1.02454 -0.00397879 0)
(1.02432 -0.00169113 0)
(0.9998 -5.27563e-05 0)
(1.00026 0.0010849 0)
(0.999767 -0.00088554 0)
(1.00046 0.000925845 0)
(1.00051 -0.00102562 0)
(1.00159 0.000297811 0)
(1.00189 -0.00190918 0)
(1.00339 -0.000869214 0)
(1.00458 -0.00303828 0)
(1.00704 -0.00236272 0)
(1.00909 -0.00444077 0)
(1.01206 -0.003668 0)
(1.0143 -0.00535364 0)
(1.01679 -0.00467413 0)
(1.01863 -0.00612844 0)
(1.0207 -0.0054377 0)
(1.02232 -0.00658722 0)
(1.02463 -0.00563662 0)
(1.02541 -0.00456869 0)
(1.02615 -0.00100591 0)
(0.999865 0.000148589 0)
(1.00011 -0.000162387 0)
(0.999829 -0.000193479 0)
(1.00035 -0.000128756 0)
(1.00052 -0.000119868 0)
(1.00141 -0.000728817 0)
(1.00185 -0.00115981 0)
(1.00319 -0.00181553 0)
(1.00448 -0.00234066 0)
(1.00679 -0.00314187 0)
(1.00897 -0.00394196 0)
(1.01186 -0.00456891 0)
(1.0142 -0.0052972 0)
(1.01659 -0.0058915 0)
(1.01854 -0.00653315 0)
(1.0206 -0.0068416 0)
(1.02241 -0.00672028 0)
(1.02516 -0.00575941 0)
(1.02704 -0.00338073 0)
(1.02842 0.000813642 0)
(0.999961 -4.35641e-05 0)
(1.00002 -0.000349935 0)
(0.999946 0.000266489 0)
(1.00026 -0.000371643 0)
(1.00057 0.000378686 0)
(1.00122 -0.0010654 0)
(1.00183 -0.000707804 0)
(1.00297 -0.00220941 0)
(1.0044 -0.00195677 0)
(1.0065 -0.0035367 0)
(1.00883 -0.00365256 0)
(1.01157 -0.00516262 0)
(1.01404 -0.00544949 0)
(1.0163 -0.00685762 0)
(1.01843 -0.00690707 0)
(1.02059 -0.00771623 0)
(1.023 -0.00655189 0)
(1.0263 -0.00456569 0)
(1.02906 -0.00122777 0)
(1.03077 0.00266059 0)
(1.00004 -7.84864e-06 0)
(0.99999 -0.000248555 0)
(1.00002 0.000516339 0)
(1.0002 -0.000406784 0)
(1.00057 0.000421748 0)
(1.00104 -0.00115259 0)
(1.00176 -0.000633729 0)
(1.00276 -0.00234453 0)
(1.00428 -0.00188439 0)
(1.00621 -0.00363203 0)
(1.00862 -0.00356183 0)
(1.0112 -0.00553598 0)
(1.01376 -0.00582615 0)
(1.016 -0.00752172 0)
(1.01834 -0.00717411 0)
(1.02076 -0.00787854 0)
(1.0241 -0.00600205 0)
(1.02801 -0.00312275 0)
(1.03126 0.000437338 0)
(1.03306 0.00389219 0)
(1.00007 -9.15723e-05 0)
(1 0.000159418 0)
(1.00002 0.00018978 0)
(1.00015 -7.82109e-05 0)
(1.0005 -0.000145621 0)
(1.00092 -0.00076306 0)
(1.00162 -0.00104328 0)
(1.00259 -0.0018652 0)
(1.00411 -0.00211841 0)
(1.00595 -0.0031583 0)
(1.00828 -0.00387833 0)
(1.01077 -0.00539971 0)
(1.01338 -0.00626928 0)
(1.01577 -0.00733297 0)
(1.01836 -0.0072976 0)
(1.02122 -0.00701247 0)
(1.02553 -0.00470238 0)
(1.02996 -0.00145814 0)
(1.03341 0.00176727 0)
(1.03512 0.00471593 0)
(1.00006 -0.000185274 0)
(0.999998 0.000450597 0)
(0.999971 -0.000322355 0)
(1.00011 0.000261509 0)
(1.0004 -0.000737772 0)
(1.00083 -0.000214292 0)
(1.00146 -0.00139928 0)
(1.00246 -0.00108433 0)
(1.00388 -0.00233399 0)
(1.00566 -0.00248868 0)
(1.00785 -0.00420966 0)
(1.01037 -0.00477163 0)
(1.01301 -0.00633672 0)
(1.01563 -0.00646697 0)
(1.01854 -0.00706427 0)
(1.02221 -0.00561431 0)
(1.02722 -0.00292656 0)
(1.03191 0.000164813 0)
(1.03534 0.00287132 0)
(1.03683 0.0051712 0)
(1.00007 -5.76175e-05 0)
(0.999955 0.000125344 0)
(0.999946 -0.00045411 0)
(1.00006 8.069e-05 0)
(1.00035 -0.000677797 0)
(1.00075 -9.90479e-05 0)
(1.00135 -0.00114949 0)
(1.00233 -0.000742272 0)
(1.00364 -0.00209809 0)
(1.00535 -0.00218533 0)
(1.00746 -0.00387305 0)
(1.01 -0.00413055 0)
(1.01269 -0.00573439 0)
(1.01552 -0.00563535 0)
(1.01888 -0.00606505 0)
(1.02358 -0.00407829 0)
(1.02903 -0.00131396 0)
(1.03372 0.00136697 0)
(1.03696 0.00349044 0)
(1.03814 0.00511954 0)
(1.00011 0.000105414 0)
(0.999901 -0.00042258 0)
(1 -0.000218167 0)
(1.00005 -0.000332057 0)
(1.00038 -6.84929e-05 0)
(1.00069 -0.000355228 0)
(1.00132 -0.000443675 0)
(1.00218 -0.000929556 0)
(1.00345 -0.00142913 0)
(1.00505 -0.00222389 0)
(1.00716 -0.00287021 0)
(1.00962 -0.00368004 0)
(1.01241 -0.0043793 0)
(1.01553 -0.00477413 0)
(1.01952 -0.0040098 0)
(1.02501 -0.00190883 0)
(1.03071 0.000464883 0)
(1.03522 0.00249976 0)
(1.03816 0.00392905 0)
(1.03899 0.00489628 0)
(1.00016 6.57402e-05 0)
(0.999875 -0.000490265 0)
(1.0001 -6.22844e-05 0)
(1.00008 -0.000309797 0)
(1.00045 0.000278056 0)
(1.00064 -0.000397402 0)
(1.00129 -5.65367e-05 0)
(1.00202 -0.000966141 0)
(1.00328 -0.000921003 0)
(1.0048 -0.00191618 0)
(1.00695 -0.00184826 0)
(1.00932 -0.00272362 0)
(1.01227 -0.00254982 0)
(1.01578 -0.00292516 0)
(1.02065 -0.0012793 0)
(1.02636 0.000724226 0)
(1.032 0.00238645 0)
(1.03621 0.00357235 0)
(1.03882 0.00425066 0)
(1.03935 0.00458453 0)
(1.00021 -2.80306e-05 0)
(0.999849 -0.000225737 0)
(1.00019 -0.000107127 0)
(1.00012 1.35286e-05 0)
(1.0005 9.91015e-05 0)
(1.00059 -0.000144652 0)
(1.00124 -0.000182612 0)
(1.00187 -0.000531853 0)
(1.00317 -0.000685023 0)
(1.00466 -0.000925653 0)
(1.00688 -0.000871836 0)
(1.00929 -0.000899527 0)
(1.01241 -0.000581528 0)
(1.01633 1.02262e-05 0)
(1.02181 0.00161007 0)
(1.0274 0.00316856 0)
(1.03272 0.0040896 0)
(1.03657 0.00444608 0)
(1.03891 0.00446759 0)
(1.03923 0.00422799 0)
(1.00026 1.93793e-05 0)
(0.999812 -0.000177284 0)
(1.00029 -7.87013e-05 0)
(1.00012 6.71249e-05 0)
(1.00052 -4.3639e-05 0)
(1.00053 -7.84905e-07 0)
(1.00122 -0.000156943 0)
(1.00179 -2.72289e-05 0)
(1.00318 -0.000100628 0)
(1.00472 0.00029775 0)
(1.00704 0.000500555 0)
(1.00951 0.00104887 0)
(1.01288 0.00151448 0)
(1.01716 0.00290411 0)
(1.02271 0.0041987 0)
(1.02801 0.00516884 0)
(1.03285 0.00548718 0)
(1.03631 0.00517574 0)
(1.03839 0.00467065 0)
(1.03856 0.00393094 0)
(1.00029 5.80244e-05 0)
(0.999803 -0.00021603 0)
(1.00038 8.38415e-06 0)
(1.0001 -3.08424e-05 0)
(1.00053 1.37397e-05 0)
(1.00051 8.91789e-05 0)
(1.00128 0.000241329 0)
(1.00187 0.000497878 0)
(1.00339 0.000927845 0)
(1.00497 0.00144334 0)
(1.00734 0.00199653 0)
(1.00989 0.00260126 0)
(1.0136 0.00349704 0)
(1.01804 0.00497337 0)
(1.02332 0.00599102 0)
(1.02819 0.00640881 0)
(1.03248 0.00624438 0)
(1.03551 0.00547935 0)
(1.03734 0.00461529 0)
(1.0374 0.00359611 0)
(1.0003 8.36001e-06 0)
(0.999826 -9.71443e-05 0)
(1.00039 4.27485e-05 0)
(1.00009 -1.13918e-05 0)
(1.00056 7.7216e-05 0)
(1.0006 0.000306959 0)
(1.00144 0.000775044 0)
(1.00211 0.00127315 0)
(1.00368 0.00199432 0)
(1.00528 0.00250682 0)
(1.00769 0.00312548 0)
(1.0104 0.00376184 0)
(1.0144 0.00483255 0)
(1.01881 0.00593113 0)
(1.02365 0.00659754 0)
(1.02799 0.00655578 0)
(1.03173 0.00606015 0)
(1.0344 0.00516698 0)
(1.03605 0.00425377 0)
(1.0361 0.00333252 0)
(1.00026 -3.23101e-05 0)
(0.999854 7.4647e-05 0)
(1.00033 3.94122e-05 0)
(1.00013 4.19545e-05 0)
(1.00062 0.000221797 0)
(1.00083 0.000656771 0)
(1.00169 0.00138488 0)
(1.00247 0.00212768 0)
(1.00396 0.00286127 0)
(1.00556 0.00335812 0)
(1.00801 0.00388951 0)
(1.01096 0.00446939 0)
(1.01503 0.00530464 0)
(1.01929 0.00579392 0)
(1.02368 0.00597991 0)
(1.02755 0.00559962 0)
(1.03091 0.00497644 0)
(1.0334 0.00423054 0)
(1.035 0.00357419 0)
(1.03512 0.00301623 0)
(1.00017 -2.41783e-05 0)
(0.999895 0.000160252 0)
(1.00025 8.00298e-05 0)
(1.00024 0.000108603 0)
(1.00073 0.00054158 0)
(1.00115 0.00113524 0)
(1.002 0.00200038 0)
(1.00286 0.00269307 0)
(1.00422 0.00341184 0)
(1.00588 0.00391252 0)
(1.00831 0.00450373 0)
(1.01139 0.00489859 0)
(1.0153 0.00531985 0)
(1.01931 0.00512555 0)
(1.02334 0.00471555 0)
(1.02693 0.00393476 0)
(1.03015 0.00321215 0)
(1.0327 0.00258492 0)
(1.03442 0.00226423 0)
(1.03473 0.0020949 0)
(1.00008 1.34232e-05 0)
(0.999977 0.000116618 0)
(1.00017 0.000276414 0)
(1.00038 0.000280869 0)
(1.0009 0.000940474 0)
(1.00153 0.00155593 0)
(1.0023 0.00240904 0)
(1.00325 0.00289247 0)
(1.00457 0.00378534 0)
(1.00631 0.00440678 0)
(1.00863 0.00522175 0)
(1.01158 0.00545142 0)
(1.01507 0.0054259 0)
(1.01865 0.00449246 0)
(1.02233 0.00337635 0)
(1.02585 0.00195763 0)
(1.02923 0.000972238 0)
(1.03218 0.000241754 0)
(1.0343 0.000116074 0)
(1.03503 0.000199582 0)
(1.00003 7.3368e-05 0)
(1.00007 -1.9002e-05 0)
(1.00012 0.000528286 0)
(1.0005 0.000529503 0)
(1.00114 0.00134247 0)
(1.00187 0.00169428 0)
(1.00263 0.00253987 0)
(1.0037 0.00304541 0)
(1.00515 0.00428709 0)
(1.00689 0.00507531 0)
(1.00902 0.00605909 0)
(1.01146 0.00612822 0)
(1.01424 0.00569334 0)
(1.01711 0.00414352 0)
(1.02041 0.00241931 0)
(1.024 0.000352462 0)
(1.02787 -0.00104335 0)
(1.03153 -0.00211177 0)
(1.03439 -0.00238964 0)
(1.03574 -0.00240681 0)
(1.00007 0.000146969 0)
(1.00008 -0.000115067 0)
(1.0003 0.000593657 0)
(1.00064 0.000678598 0)
(1.00147 0.0016668 0)
(1.00206 0.0017329 0)
(1.00315 0.00264088 0)
(1.00427 0.00340172 0)
(1.00603 0.00476987 0)
(1.00752 0.00565007 0)
(1.00947 0.00655294 0)
(1.01103 0.00656107 0)
(1.013 0.00597485 0)
(1.01489 0.00444887 0)
(1.01778 0.00262485 0)
(1.02126 0.000361829 0)
(1.02574 -0.00150855 0)
(1.03003 -0.00314251 0)
(1.03378 -0.00415253 0)
(1.03579 -0.00485025 0)
(1.00025 0.000174884 0)
(0.999932 -3.90331e-05 0)
(1.00078 0.000421746 0)
(1.00075 0.000845156 0)
(1.00199 0.0016623 0)
(1.00211 0.00200607 0)
(1.00395 0.0027698 0)
(1.00484 0.00379208 0)
(1.00707 0.00471943 0)
(1.00803 0.00571356 0)
(1.00999 0.00627653 0)
(1.01056 0.00666664 0)
(1.01207 0.00637927 0)
(1.01287 0.00588058 0)
(1.01521 0.00468288 0)
(1.01786 0.0030855 0)
(1.02243 0.000855529 0)
(1.02665 -0.00135765 0)
(1.03102 -0.00366195 0)
(1.03344 -0.00552534 0)
(1.00062 8.65424e-05 0)
(0.999657 0.000251643 0)
(1.00135 0.0002119 0)
(1.00078 0.00127637 0)
(1.00263 0.00124842 0)
(1.00228 0.00236203 0)
(1.00479 0.00267112 0)
(1.00528 0.00386464 0)
(1.00792 0.00409596 0)
(1.00848 0.00521712 0)
(1.01064 0.00547346 0)
(1.01074 0.00663111 0)
(1.01228 0.00708754 0)
(1.01235 0.00813658 0)
(1.01394 0.00806271 0)
(1.01487 0.00783955 0)
(1.0181 0.00604395 0)
(1.02101 0.00382963 0)
(1.025 0.000509581 0)
(1.0274 -0.00245422 0)
(1.00091 -0.000125843 0)
(0.999495 0.00074719 0)
(1.00162 0.00017578 0)
(1.0009 0.00161805 0)
(1.00288 0.00084957 0)
(1.00278 0.00250291 0)
(1.00519 0.00229298 0)
(1.00573 0.00351469 0)
(1.00831 0.00326539 0)
(1.00912 0.00442735 0)
(1.01151 0.00468088 0)
(1.01223 0.00649545 0)
(1.01399 0.00773309 0)
(1.01402 0.00992821 0)
(1.0147 0.010913 0)
(1.01418 0.0119292 0)
(1.01487 0.0111971 0)
(1.01514 0.00990756 0)
(1.01697 0.00710149 0)
(1.01861 0.00434693 0)
(1.00071 -0.000375405 0)
(0.999663 0.00125402 0)
(1.00134 0.000302637 0)
(1.00118 0.00146585 0)
(1.00271 0.000833577 0)
(1.00336 0.0023179 0)
(1.00508 0.00179894 0)
(1.00618 0.00290791 0)
(1.00835 0.00258366 0)
(1.01007 0.0037937 0)
(1.01268 0.00420394 0)
(1.01472 0.00606705 0)
(1.01673 0.00739645 0)
(1.01724 0.00974526 0)
(1.01701 0.0112776 0)
(1.01546 0.0131228 0)
(1.01388 0.0136482 0)
(1.01221 0.0139348 0)
(1.01175 0.0130047 0)
(1.01229 0.0120059 0)
(1 -0.000379063 0)
(1.00019 0.00128444 0)
(1.00057 0.000456801 0)
(1.00157 0.00113698 0)
(1.00242 0.00102636 0)
(1.00377 0.00169742 0)
(1.00475 0.00137666 0)
(1.00669 0.00215993 0)
(1.00845 0.00232521 0)
(1.0112 0.00339094 0)
(1.01369 0.00395418 0)
(1.01677 0.0051196 0)
(1.01893 0.0059562 0)
(1.02053 0.0074473 0)
(1.02034 0.00896481 0)
(1.01908 0.0111653 0)
(1.01649 0.0131675 0)
(1.01409 0.0152291 0)
(1.01214 0.0167739 0)
(1.01189 0.0181282 0)
(0.999226 -0.000148828 0)
(1.00086 0.000815885 0)
(0.999696 0.000340758 0)
(1.0021 0.0010404 0)
(1.00184 0.000904477 0)
(1.00408 0.00104272 0)
(1.00438 0.00106497 0)
(1.00749 0.00159834 0)
(1.00872 0.00212158 0)
(1.01228 0.00275972 0)
(1.01404 0.00320734 0)
(1.01778 0.00378155 0)
(1.01964 0.00435549 0)
(1.02271 0.00524278 0)
(1.02362 0.00645292 0)
(1.02464 0.00828598 0)
(1.02295 0.0106381 0)
(1.02174 0.0136346 0)
(1.01963 0.0168539 0)
(1.01914 0.020137 0)
(0.998979 0.000181774 0)
(1.0011 5.62416e-05 0)
(0.999386 0.000252336 0)
(1.00248 0.000597144 0)
(1.0012 0.000565474 0)
(1.00424 0.000394851 0)
(1.00425 0.00088711 0)
(1.00803 0.0009909 0)
(1.00887 0.00151619 0)
(1.01266 0.00134056 0)
(1.01429 0.00186889 0)
(1.01861 0.00216262 0)
(1.02077 0.00322901 0)
(1.02459 0.00416328 0)
(1.0261 0.00579898 0)
(1.0287 0.00747685 0)
(1.02945 0.0100191 0)
(1.03133 0.0128844 0)
(1.03132 0.0161618 0)
(1.03138 0.0192398 0)
(0.999279 0.000702358 0)
(1.0009 -0.00083244 0)
(0.999691 0.000717249 0)
(1.00232 -0.000392754 0)
(1.00105 0.000624474 0)
(1.0043 -0.000377553 0)
(1.00448 0.000892732 0)
(1.00804 3.21107e-05 0)
(1.00873 0.000810784 0)
(1.01259 -0.000253621 0)
(1.01511 0.000793604 0)
(1.02 0.000517079 0)
(1.02333 0.00218844 0)
(1.02794 0.00276546 0)
(1.03102 0.00528394 0)
(1.03487 0.00713439 0)
(1.03708 0.0107004 0)
(1.03917 0.0132488 0)
(1.03929 0.0165307 0)
(1.03876 0.018207 0)
(0.99987 0.00050515 0)
(1.00037 -0.000623821 0)
(1.00046 0.000542965 0)
(1.00166 -0.000453424 0)
(1.0017 0.00040228 0)
(1.00395 -0.000361555 0)
(1.00508 0.000466261 0)
(1.00741 -0.000238602 0)
(1.0088 0.000256213 0)
(1.01228 -0.000436194 0)
(1.01597 0.000210882 0)
(1.02094 -0.000112797 0)
(1.02569 0.000790059 0)
(1.03134 0.000895637 0)
(1.03709 0.00230198 0)
(1.04301 0.00321523 0)
(1.04735 0.00526323 0)
(1.04967 0.00656573 0)
(1.04875 0.00844246 0)
(1.0445 0.00911105 0)
(1.00815 0.000222046 0)
(0.982164 0.000761129 0)
(0.955802 0.00123351 0)
(0.929621 0.00162238 0)
(0.903602 0.00192238 0)
(0.877661 0.0021271 0)
(0.851542 0.00225505 0)
(0.824989 0.00232434 0)
(0.797971 0.00236849 0)
(0.770259 0.00236626 0)
(0.742185 0.00239596 0)
(0.713566 0.0024097 0)
(0.684847 0.00242841 0)
(0.65563 0.00247074 0)
(0.626148 0.00252886 0)
(0.595971 0.00256378 0)
(0.565421 0.00256755 0)
(0.534158 0.00259778 0)
(0.50236 0.00255913 0)
(0.470456 0.00257268 0)
(0.438149 0.00254666 0)
(0.406353 0.00243664 0)
(0.374871 0.0023287 0)
(0.344572 0.00212634 0)
(0.31607 0.00187214 0)
(0.290546 0.00150127 0)
(0.269586 0.00097931 0)
(0.252995 0.000475408 0)
(0.241081 -2.93372e-05 0)
(0.232742 -0.000491813 0)
(0.226596 -0.00065125 0)
(0.222231 -0.000613247 0)
(0.21872 -0.000554882 0)
(0.215886 -0.000460487 0)
(0.213511 -0.000397323 0)
(0.211114 -0.000319282 0)
(0.209027 -0.000228006 0)
(0.206802 -0.000172446 0)
(0.204396 -6.56238e-05 0)
(0.202003 2.43596e-05 0)
(0.199312 4.48596e-05 0)
(0.19651 5.44717e-05 0)
(0.193742 3.98829e-05 0)
(0.190859 5.93103e-05 0)
(0.188182 9.90902e-05 0)
(0.185479 7.72962e-05 0)
(0.182666 6.69934e-05 0)
(0.179897 7.78992e-05 0)
(0.177222 6.20598e-05 0)
(0.174633 6.60607e-05 0)
(0.1722 6.15588e-05 0)
(0.16969 2.85523e-05 0)
(0.167317 3.83767e-05 0)
(0.165122 5.31314e-05 0)
(0.162985 2.26851e-05 0)
(0.160819 1.71337e-05 0)
(0.15885 3.12983e-05 0)
(0.156953 1.66573e-05 0)
(0.155227 1.61465e-05 0)
(0.153483 2.8633e-05 0)
(0.151769 1.07697e-05 0)
(0.150185 -2.42308e-07 0)
(0.148876 1.37504e-05 0)
(0.147468 1.32337e-05 0)
(0.146144 2.30763e-06 0)
(0.14496 2.66883e-06 0)
(0.143995 5.38522e-06 0)
(0.142955 5.10526e-06 0)
(0.142032 4.10222e-06 0)
(0.141142 2.68779e-06 0)
(0.140459 2.31082e-06 0)
(0.139726 2.77507e-06 0)
(0.13915 2.30425e-06 0)
(0.138526 2.4205e-06 0)
(0.138088 1.76629e-06 0)
(0.137583 1.10798e-06 0)
(0.137262 1.70603e-06 0)
(0.136816 1.91945e-06 0)
(0.136586 7.79547e-07 0)
(0.136238 8.77654e-07 0)
(0.136103 1.23142e-06 0)
(0.135782 8.74562e-07 0)
(0.135728 2.59525e-07 0)
(0.135453 6.33815e-07 0)
(0.135465 4.80987e-07 0)
(0.135195 3.65826e-07 0)
(0.135287 1.23518e-07 0)
(0.135013 4.47521e-07 0)
(0.13518 1.46962e-07 0)
(0.134874 4.83122e-07 0)
(0.13513 1.78889e-07 0)
(0.134764 6.85191e-07 0)
(0.135115 4.72306e-07 0)
(0.134662 8.35348e-07 0)
(0.13511 1.13095e-06 0)
(0.13457 2.77712e-07 0)
(0.135094 3.04341e-06 0)
(0.134549 -3.72204e-06 0)
(0.135102 2.13453e-06 0)
(0.134926 2.43621e-06 0)
(1.0211 0.000961573 0)
(1.01888 0.00212283 0)
(1.01595 0.00314722 0)
(1.01306 0.00397541 0)
(1.01027 0.00460405 0)
(1.00712 0.00502126 0)
(1.00399 0.0052483 0)
(0.999764 0.00537385 0)
(0.995473 0.00543497 0)
(0.989685 0.00545012 0)
(0.983887 0.00550125 0)
(0.976729 0.00556835 0)
(0.969428 0.00564976 0)
(0.961129 0.00576101 0)
(0.952 0.0059124 0)
(0.942249 0.00603119 0)
(0.930885 0.00612919 0)
(0.919297 0.00623128 0)
(0.905493 0.00627142 0)
(0.89174 0.00634495 0)
(0.875891 0.00635473 0)
(0.859691 0.00630637 0)
(0.8426 0.0062172 0)
(0.824182 0.0060342 0)
(0.806698 0.00577617 0)
(0.787777 0.00532344 0)
(0.771364 0.00472615 0)
(0.755225 0.00404033 0)
(0.740349 0.00330155 0)
(0.728012 0.00261608 0)
(0.714783 0.00204913 0)
(0.703842 0.00165713 0)
(0.692948 0.00140128 0)
(0.681589 0.00119787 0)
(0.672285 0.00102856 0)
(0.661613 0.000922808 0)
(0.651812 0.000844125 0)
(0.642865 0.000787771 0)
(0.63254 0.000748339 0)
(0.623472 0.000708117 0)
(0.614292 0.000715973 0)
(0.604361 0.000720367 0)
(0.595769 0.00068804 0)
(0.586384 0.000639555 0)
(0.577371 0.000600262 0)
(0.569255 0.000618291 0)
(0.5601 0.00060437 0)
(0.551483 0.000561682 0)
(0.543827 0.000539064 0)
(0.535199 0.000487832 0)
(0.527533 0.000486303 0)
(0.520289 0.00048436 0)
(0.512258 0.000394349 0)
(0.505254 0.000378987 0)
(0.499028 0.000394252 0)
(0.491512 0.000332413 0)
(0.48517 0.00030583 0)
(0.479695 0.000291899 0)
(0.473436 0.000249165 0)
(0.467467 0.000252885 0)
(0.462713 0.000242512 0)
(0.457353 0.000185091 0)
(0.452353 0.0001673 0)
(0.447933 0.000174362 0)
(0.443763 0.000150283 0)
(0.439475 0.00011713 0)
(0.435932 0.000105729 0)
(0.432361 0.000106061 0)
(0.429166 9.22742e-05 0)
(0.425983 7.22359e-05 0)
(0.423419 6.48328e-05 0)
(0.420722 6.07232e-05 0)
(0.41854 5.07869e-05 0)
(0.416215 4.50208e-05 0)
(0.414523 3.90323e-05 0)
(0.412549 3.19373e-05 0)
(0.411186 2.94685e-05 0)
(0.409507 2.65642e-05 0)
(0.408521 1.98086e-05 0)
(0.407087 1.69954e-05 0)
(0.406418 1.64303e-05 0)
(0.40518 1.32291e-05 0)
(0.4048 9.82818e-06 0)
(0.403684 9.01298e-06 0)
(0.403576 7.85624e-06 0)
(0.40253 5.56053e-06 0)
(0.402693 4.52172e-06 0)
(0.401658 3.43319e-06 0)
(0.402101 3.08661e-06 0)
(0.401003 1.62999e-06 0)
(0.401741 2.3684e-06 0)
(0.400513 6.96733e-07 0)
(0.401544 3.06904e-06 0)
(0.400152 -9.01214e-08 0)
(0.401417 4.78315e-06 0)
(0.399928 -5.78081e-07 0)
(0.401228 4.66344e-06 0)
(0.399962 1.20618e-06 0)
(0.400846 -1.17932e-05 0)
(0.400619 9.51146e-07 0)
(1.02077 0.00156568 0)
(1.01905 0.00274532 0)
(1.01722 0.00393309 0)
(1.01581 0.00489877 0)
(1.01517 0.00571605 0)
(1.01461 0.00623267 0)
(1.01471 0.00650461 0)
(1.01428 0.00663149 0)
(1.0143 0.00664497 0)
(1.01353 0.00665485 0)
(1.01311 0.00662465 0)
(1.01218 0.00672283 0)
(1.01134 0.00677366 0)
(1.01042 0.00695221 0)
(1.009 0.00711521 0)
(1.00781 0.00730905 0)
(1.00561 0.00749004 0)
(1.00376 0.00762523 0)
(1.00068 0.00778903 0)
(0.997716 0.00787382 0)
(0.993924 0.00803284 0)
(0.989601 0.00799681 0)
(0.985207 0.00799855 0)
(0.979586 0.00786469 0)
(0.974452 0.00756411 0)
(0.968124 0.00719088 0)
(0.962305 0.00645609 0)
(0.956429 0.00580729 0)
(0.950151 0.00498336 0)
(0.944856 0.00416057 0)
(0.938735 0.00366963 0)
(0.933027 0.00309176 0)
(0.927689 0.00285244 0)
(0.921274 0.00270472 0)
(0.916069 0.0023808 0)
(0.910017 0.00234948 0)
(0.903859 0.00219034 0)
(0.898475 0.00205767 0)
(0.891891 0.00213782 0)
(0.885829 0.00197104 0)
(0.879843 0.00193668 0)
(0.872851 0.00198466 0)
(0.866737 0.00185308 0)
(0.859827 0.00183759 0)
(0.853019 0.00174896 0)
(0.846433 0.00165927 0)
(0.839254 0.00173106 0)
(0.832034 0.00163269 0)
(0.82517 0.0015049 0)
(0.81787 0.00150699 0)
(0.810723 0.00142732 0)
(0.803607 0.00137068 0)
(0.796512 0.00134871 0)
(0.789002 0.00121921 0)
(0.782374 0.00116545 0)
(0.775043 0.00119363 0)
(0.767663 0.00107401 0)
(0.761087 0.000950962 0)
(0.754477 0.000969528 0)
(0.747044 0.000938538 0)
(0.740885 0.000826373 0)
(0.734411 0.000775673 0)
(0.727917 0.000747025 0)
(0.721625 0.000682679 0)
(0.715994 0.000629351 0)
(0.709937 0.000575801 0)
(0.704564 0.000515864 0)
(0.699047 0.00048459 0)
(0.694207 0.000450095 0)
(0.689054 0.000391482 0)
(0.684727 0.000348619 0)
(0.68014 0.000322102 0)
(0.676333 0.00028719 0)
(0.672105 0.000252109 0)
(0.668945 0.000222718 0)
(0.665239 0.000196765 0)
(0.662513 0.000176997 0)
(0.659203 0.000153993 0)
(0.65708 0.00013 0)
(0.654128 0.000112219 0)
(0.652505 0.000100479 0)
(0.649916 8.38726e-05 0)
(0.648797 7.16175e-05 0)
(0.646431 6.0474e-05 0)
(0.645786 5.32684e-05 0)
(0.643614 4.09982e-05 0)
(0.643425 3.66832e-05 0)
(0.641374 2.72488e-05 0)
(0.641635 2.53636e-05 0)
(0.639642 1.63493e-05 0)
(0.640317 1.65624e-05 0)
(0.638343 9.66368e-06 0)
(0.639356 1.04423e-05 0)
(0.637431 7.02338e-06 0)
(0.638617 4.71497e-06 0)
(0.636896 9.9266e-06 0)
(0.637965 -5.75014e-06 0)
(0.636781 1.7257e-05 0)
(0.637319 -2.83725e-05 0)
(0.637192 -4.2187e-06 0)
(1.02083 0.00194692 0)
(1.01909 0.00291184 0)
(1.01728 0.00408084 0)
(1.01587 0.00511989 0)
(1.0152 0.00606487 0)
(1.0148 0.00667623 0)
(1.01495 0.00698676 0)
(1.01494 0.00708599 0)
(1.01519 0.00702619 0)
(1.01512 0.00696405 0)
(1.01522 0.00683003 0)
(1.01521 0.00686796 0)
(1.01533 0.00687204 0)
(1.01555 0.00705662 0)
(1.01565 0.00720834 0)
(1.01593 0.00743676 0)
(1.01591 0.00766848 0)
(1.01606 0.00782371 0)
(1.01588 0.00803173 0)
(1.01572 0.0081428 0)
(1.01547 0.00835235 0)
(1.01499 0.00833685 0)
(1.01467 0.00835755 0)
(1.01389 0.00822813 0)
(1.01328 0.00790441 0)
(1.01216 0.00750488 0)
(1.01111 0.00673172 0)
(1.00982 0.00607926 0)
(1.00828 0.00520906 0)
(1.00671 0.00433303 0)
(1.00483 0.00386857 0)
(1.00283 0.00324042 0)
(1.00097 0.00303206 0)
(0.998634 0.00297906 0)
(0.996749 0.00263674 0)
(0.994467 0.00269315 0)
(0.992196 0.0025312 0)
(0.990099 0.00237581 0)
(0.987643 0.00257256 0)
(0.98526 0.00238635 0)
(0.983022 0.00238376 0)
(0.98017 0.00247555 0)
(0.977811 0.002313 0)
(0.974876 0.00235673 0)
(0.972078 0.00226935 0)
(0.969148 0.00217906 0)
(0.965989 0.00229968 0)
(0.962682 0.00220428 0)
(0.959512 0.00207681 0)
(0.955859 0.00207727 0)
(0.952451 0.00200967 0)
(0.948697 0.00195631 0)
(0.945155 0.00193324 0)
(0.941059 0.00181337 0)
(0.937504 0.00173625 0)
(0.933411 0.00178821 0)
(0.929299 0.00168926 0)
(0.925218 0.00150587 0)
(0.921374 0.0015322 0)
(0.916638 0.00153482 0)
(0.9128 0.00137368 0)
(0.90845 0.00130641 0)
(0.9042 0.00129816 0)
(0.899749 0.00120813 0)
(0.895917 0.00112926 0)
(0.89136 0.00106917 0)
(0.887427 0.000991929 0)
(0.88304 0.000939116 0)
(0.879346 0.000888447 0)
(0.874987 0.000808306 0)
(0.871433 0.0007409 0)
(0.867312 0.000692398 0)
(0.864053 0.00064117 0)
(0.86 0.000582386 0)
(0.85706 0.000525658 0)
(0.853283 0.00047755 0)
(0.85062 0.000442117 0)
(0.847063 0.000396345 0)
(0.844809 0.0003515 0)
(0.841432 0.000313471 0)
(0.83953 0.000283892 0)
(0.836422 0.000245958 0)
(0.834941 0.000219296 0)
(0.832027 0.000192509 0)
(0.830945 0.000172618 0)
(0.82822 0.000144472 0)
(0.827509 0.000128455 0)
(0.824963 0.000106223 0)
(0.824647 9.36141e-05 0)
(0.822288 7.59184e-05 0)
(0.822324 6.53132e-05 0)
(0.820147 5.50577e-05 0)
(0.820445 4.20126e-05 0)
(0.81849 4.22582e-05 0)
(0.818912 2.07434e-05 0)
(0.817303 3.86201e-05 0)
(0.817663 -3.32793e-06 0)
(0.8166 3.90799e-05 0)
(0.816693 -3.24749e-05 0)
(0.816414 -3.54052e-06 0)
(1.02101 0.00196339 0)
(1.01932 0.00266639 0)
(1.0175 0.00378042 0)
(1.01609 0.00490197 0)
(1.01528 0.00594414 0)
(1.01488 0.00667402 0)
(1.01487 0.00703437 0)
(1.01493 0.00715031 0)
(1.01512 0.00702422 0)
(1.01515 0.00692292 0)
(1.01532 0.00673473 0)
(1.0154 0.00672712 0)
(1.01569 0.00672615 0)
(1.01596 0.0069029 0)
(1.01632 0.00708381 0)
(1.01665 0.00730983 0)
(1.01697 0.00760066 0)
(1.01728 0.00773732 0)
(1.01754 0.00796037 0)
(1.01782 0.00806976 0)
(1.01811 0.00824392 0)
(1.01841 0.00826121 0)
(1.01882 0.0082185 0)
(1.01912 0.00811799 0)
(1.01955 0.00775276 0)
(1.01963 0.00730011 0)
(1.01989 0.00655496 0)
(1.01974 0.00585904 0)
(1.01961 0.00502728 0)
(1.01918 0.00415055 0)