/*--------------------------------*- C++ -*----------------------------------*\
  =========                 |
  \\      /  F ield         | OpenFOAM: The Open Source CFD Toolbox
   \\    /   O peration     | Website:  https://openfoam.org
    \\  /    A nd           | Version:  6
     \\/     M anipulation  |
\*---------------------------------------------------------------------------*/
FoamFile
{
    version     2.0;
    format      ascii;
    class       volScalarField;
    location    "0.8";
    object      p;
}
// * * * * * * * * * * * * * * * * * * * * * * * * * * * * * * * * * * * * * //

dimensions      [0 2 -2 0 0 0 0];

internalField   nonuniform List<scalar> 
4800
(
5.23934e-10
-0.000209195
-0.000805843
-0.00174017
-0.00314424
-0.0048142
-0.00690835
-0.00948777
-0.0123405
-0.0153301
-0.0182853
-0.0209233
-0.0231918
-0.0250403
-0.0264756
-0.0276683
-0.0286654
-0.0294518
-0.0298873
-0.0297439
-1.62238e-06
-0.000209056
-0.000806677
-0.00173868
-0.00314328
-0.00481193
-0.00690794
-0.00948829
-0.0123399
-0.0153286
-0.0182809
-0.0209219
-0.0231909
-0.0250438
-0.0264829
-0.0276755
-0.0286756
-0.0294683
-0.0299092
-0.0298079
-1.04753e-05
-0.00020762
-0.000809959
-0.00173382
-0.00313978
-0.00480291
-0.0069077
-0.00948945
-0.0123388
-0.015323
-0.0182674
-0.0209154
-0.0231888
-0.025054
-0.0264992
-0.0276959
-0.0287043
-0.0295096
-0.0299616
-0.0299692
-2.12117e-05
-0.000204826
-0.000814667
-0.00172826
-0.00313054
-0.00478712
-0.00690859
-0.00949269
-0.0123364
-0.0153108
-0.018243
-0.0209022
-0.0231875
-0.0250741
-0.026531
-0.0277343
-0.0287653
-0.0295939
-0.0300648
-0.0301875
-2.37828e-05
-0.000200359
-0.000816508
-0.00172538
-0.00311215
-0.00476684
-0.00690953
-0.00949749
-0.01233
-0.0152906
-0.0182121
-0.0208859
-0.0231924
-0.0251087
-0.0265828
-0.0277944
-0.0288694
-0.0297303
-0.0302468
-0.0303869
-2.10371e-05
-0.000195424
-0.000810308
-0.00172456
-0.00308143
-0.00474266
-0.00690696
-0.00949753
-0.0123137
-0.0152615
-0.0181815
-0.0208732
-0.02321
-0.0251612
-0.0266545
-0.0278783
-0.0290213
-0.0299107
-0.0304134
-0.0305121
-2.52295e-05
-0.000197592
-0.000794904
-0.00172288
-0.00303755
-0.00471466
-0.00689651
-0.00948174
-0.0122811
-0.015223
-0.018156
-0.0208714
-0.0232449
-0.0252308
-0.0267456
-0.0279878
-0.0292142
-0.0301152
-0.0305433
-0.0305351
-3.71662e-05
-0.000215603
-0.00077785
-0.00171766
-0.0029856
-0.00468311
-0.00687589
-0.00944271
-0.012232
-0.015176
-0.0181392
-0.0208846
-0.0232928
-0.0253115
-0.0268577
-0.0281405
-0.0294505
-0.0303378
-0.0306632
-0.0304954
-3.3019e-05
-0.000249568
-0.000770167
-0.00170654
-0.00293166
-0.0046479
-0.00684521
-0.00938118
-0.0121703
-0.0151243
-0.0181338
-0.0209057
-0.0233445
-0.0253981
-0.0269842
-0.0283579
-0.029697
-0.0305953
-0.0308439
-0.0305355
1.83375e-05
-0.000287679
-0.000775491
-0.00168692
-0.00287654
-0.00460716
-0.0068002
-0.00930167
-0.0121033
-0.0150746
-0.0181322
-0.0209243
-0.0233984
-0.0254855
-0.027094
-0.0285536
-0.0299301
-0.0309173
-0.0311831
-0.0306331
0.000107136
-0.000310643
-0.00078831
-0.00165395
-0.00281895
-0.00455438
-0.00673283
-0.00921165
-0.012037
-0.0150256
-0.018121
-0.0209378
-0.0234602
-0.0255417
-0.0271565
-0.0286773
-0.0301196
-0.0312991
-0.0317642
-0.0308727
0.000143198
-0.000298509
-0.00079558
-0.00160159
-0.0027581
-0.00448357
-0.00663623
-0.00911875
-0.0119637
-0.0149735
-0.0180957
-0.0209553
-0.0235065
-0.0255372
-0.0271564
-0.0286999
-0.0302255
-0.0316747
-0.0324734
-0.0315983
5.00532e-05
-0.00025364
-0.000780264
-0.0015333
-0.00269251
-0.00439468
-0.00650581
-0.00902174
-0.0118716
-0.0149194
-0.0180565
-0.0209635
-0.0234641
-0.0254592
-0.0271012
-0.0286304
-0.0302242
-0.0320085
-0.0330421
-0.0328667
-8.67122e-05
-0.000193539
-0.000734948
-0.00145909
-0.00262152
-0.00428557
-0.00635218
-0.00891106
-0.0117625
-0.0148535
-0.0179982
-0.0209211
-0.0233375
-0.0253145
-0.0270028
-0.0285318
-0.0301785
-0.0324509
-0.0339788
-0.0347961
-0.00013562
-0.000146853
-0.000671488
-0.00139276
-0.00254859
-0.00415751
-0.00619749
-0.00877735
-0.0116406
-0.0147602
-0.0179115
-0.020787
-0.023146
-0.0251206
-0.0268696
-0.0284996
-0.0303459
-0.0331507
-0.0355224
-0.0369943
-8.05783e-05
-0.000129284
-0.00061231
-0.00134585
-0.0024739
-0.00401741
-0.0060467
-0.0086166
-0.0115045
-0.0146328
-0.0177641
-0.0205567
-0.0228853
-0.02489
-0.0267192
-0.0286057
-0.0310566
-0.034434
-0.0374804
-0.0392942
2.76752e-05
-0.000140468
-0.000573534
-0.00131143
-0.00238913
-0.00386635
-0.00588804
-0.00842769
-0.011342
-0.01445
-0.0175163
-0.0202371
-0.0225558
-0.0246333
-0.0265962
-0.028852
-0.0322327
-0.0362319
-0.0396999
-0.0416344
0.000113928
-0.000154581
-0.000547866
-0.00126652
-0.00227784
-0.00370063
-0.00570678
-0.00821338
-0.0111292
-0.0141862
-0.017167
-0.0198496
-0.0221773
-0.0243624
-0.0265658
-0.0292897
-0.0337357
-0.0383694
-0.0420492
-0.0439008
0.000116967
-0.000139918
-0.00051334
-0.00119096
-0.00213178
-0.00352265
-0.00550007
-0.00798492
-0.0108597
-0.0138495
-0.0167466
-0.0194062
-0.0217702
-0.0240948
-0.0266994
-0.0302522
-0.0355693
-0.0406515
-0.0443388
-0.0459304
6.6809e-05
-8.21139e-05
-0.000457627
-0.00107939
-0.00197128
-0.00334712
-0.00528744
-0.00774589
-0.0105486
-0.0134588
-0.0162806
-0.0189155
-0.0213609
-0.0238832
-0.027045
-0.031878
-0.0377031
-0.042885
-0.0463674
-0.0475879
7.45769e-05
-4.26374e-06
-0.000381994
-0.000953742
-0.00183143
-0.00319621
-0.00509131
-0.00748029
-0.0101932
-0.0130221
-0.0157907
-0.0184193
-0.0209945
-0.0238393
-0.0277479
-0.033749
-0.0398732
-0.0448729
-0.0479859
-0.0487991
0.000185794
6.36615e-05
-0.000296025
-0.000847139
-0.0017274
-0.00307612
-0.00490067
-0.00717226
-0.0097791
-0.0125513
-0.0153051
-0.0179846
-0.0207512
-0.024096
-0.0292093
-0.0357343
-0.0418063
-0.0464274
-0.0490969
-0.0495311
0.000309137
0.000128004
-0.00021316
-0.000773308
-0.0016527
-0.0029603
-0.00467375
-0.00681419
-0.00931955
-0.0120727
-0.0148705
-0.0176879
-0.0207719
-0.0248107
-0.030995
-0.0376241
-0.043328
-0.0474412
-0.0496704
-0.0498002
0.000374941
0.000214312
-0.000139066
-0.000720195
-0.00159759
-0.00281784
-0.00439466
-0.00640965
-0.00885369
-0.0116288
-0.0145587
-0.0176232
-0.0212078
-0.0262899
-0.0328033
-0.0391585
-0.0443237
-0.0478999
-0.0497527
-0.0496803
0.000429406
0.000314436
-6.56388e-05
-0.00066825
-0.00154429
-0.00265969
-0.00410866
-0.00601222
-0.00843229
-0.0112688
-0.014421
-0.0178829
-0.0221274
-0.0280601
-0.0344373
-0.0402186
-0.0447791
-0.0478898
-0.049482
-0.0493219
0.000507421
0.000398036
9.09633e-06
-0.0006083
-0.0014666
-0.00252295
-0.00389618
-0.00573353
-0.00812983
-0.0110366
-0.0144459
-0.0184426
-0.0234792
-0.0296425
-0.0356469
-0.0407976
-0.0448323
-0.0476382
-0.049118
-0.0489713
0.000583473
0.000458406
7.13299e-05
-0.000548863
-0.00137778
-0.0024405
-0.00382083
-0.00565908
-0.00802996
-0.0109763
-0.0145968
-0.0190838
-0.0246628
-0.0306801
-0.036259
-0.0409642
-0.044716
-0.0474406
-0.0489593
-0.0488974
0.000646594
0.000502712
0.000111828
-0.00051508
-0.0013493
-0.00245798
-0.00391195
-0.00580788
-0.0081802
-0.0111262
-0.0148415
-0.0195601
-0.0251859
-0.0309016
-0.0361691
-0.040737
-0.0445314
-0.0474301
-0.0491584
-0.0492735
0.000716851
0.000528616
0.000117068
-0.000540438
-0.00143909
-0.00263214
-0.0042013
-0.00619272
-0.00859788
-0.0115113
-0.015154
-0.0197046
-0.0248963
-0.0301745
-0.0352406
-0.0399178
-0.0440432
-0.0473842
-0.0495617
-0.0500475
0.000818272
0.00054399
6.20316e-05
-0.000665582
-0.00166294
-0.00299131
-0.00471743
-0.00684035
-0.00930834
-0.0121638
-0.0155547
-0.0195347
-0.0239225
-0.0285308
-0.0333102
-0.0381202
-0.0426968
-0.0466733
-0.0495492
-0.0506809
0.000948041
0.000575968
-4.4516e-05
-0.00091073
-0.00203742
-0.00352985
-0.00545073
-0.00774474
-0.0103218
-0.0131228
-0.0161516
-0.0193631
-0.0227106
-0.0262987
-0.0303743
-0.0349611
-0.0397562
-0.0442766
-0.0478984
-0.0498689
0.00104415
0.000623054
-0.000161919
-0.00121532
-0.00253856
-0.00421981
-0.0063614
-0.00885843
-0.011608
-0.0144389
-0.0172101
-0.0197454
-0.0220069
-0.0241882
-0.0268046
-0.0303313
-0.0346367
-0.0391572
-0.0431736
-0.0458934
0.00102789
0.000626551
-0.000277439
-0.00148618
-0.00305295
-0.00498716
-0.0073692
-0.0101038
-0.0131131
-0.0161801
-0.0190017
-0.0212135
-0.0226113
-0.0232915
-0.0238237
-0.0252284
-0.0279498
-0.0314346
-0.0350181
-0.0381717
0.000888326
0.000536015
-0.000402291
-0.00171757
-0.00350417
-0.00572247
-0.00833937
-0.011347
-0.014716
-0.0182372
-0.0214451
-0.0237218
-0.0246132
-0.0243552
-0.0236233
-0.0231604
-0.0233935
-0.0243117
-0.0257501
-0.0276687
0.000667542
0.000368849
-0.000534203
-0.00196794
-0.00392413
-0.00634144
-0.00915572
-0.012447
-0.0161841
-0.0201443
-0.023862
-0.0266466
-0.0277974
-0.0273398
-0.0257986
-0.0238215
-0.0219813
-0.0207017
-0.0203438
-0.0213194
0.000433828
0.000178574
-0.000688143
-0.00225733
-0.0042965
-0.00678206
-0.00977541
-0.0133389
-0.0173188
-0.0214637
-0.0254976
-0.0290563
-0.0314924
-0.0320874
-0.0309322
-0.0285288
-0.0255744
-0.0229638
-0.0214608
-0.0215909
0.000239081
1.00628e-05
-0.000903753
-0.00252546
-0.00451386
-0.00700945
-0.010199
-0.0140112
-0.0181377
-0.0223753
-0.0265795
-0.0305275
-0.0339043
-0.0363457
-0.0374404
-0.0365917
-0.0339186
-0.0311948
-0.0296033
-0.0293249
0.000114143
-0.000117734
-0.00113836
-0.00264683
-0.00453155
-0.00710752
-0.0104816
-0.0144619
-0.0187608
-0.0233017
-0.0279645
-0.0324481
-0.0363617
-0.0392754
-0.0409099
-0.0413707
-0.0411793
-0.0410352
-0.0412146
-0.0412292
0.000146763
-0.000207446
-0.00125944
-0.00259075
-0.00445969
-0.00718904
-0.0106652
-0.0146865
-0.0192054
-0.0242476
-0.0295787
-0.0347262
-0.0393107
-0.0431401
-0.0462117
-0.0485759
-0.0502103
-0.0510249
-0.0509547
-0.0497787
0.000220409
-0.000259256
-0.00125536
-0.00251021
-0.00443129
-0.007247
-0.0107272
-0.01473
-0.0194006
-0.0248086
-0.0306566
-0.0365449
-0.0423903
-0.0482453
-0.0539552
-0.0591137
-0.0629888
-0.064677
-0.0633126
-0.0583763
-0.0287827
-0.027112
-0.0254042
-0.0240783
-0.0232471
-0.0228465
-0.0227396
-0.0227728
-0.0228739
-0.0229959
-0.0231391
-0.0233615
-0.0236707
-0.0240485
-0.0244454
-0.0248661
-0.0252663
-0.0256332
-0.0259666
-0.0263073
-0.0266876
-0.0271013
-0.0275949
-0.028152
-0.0287917
-0.0294088
-0.0299188
-0.0302319
-0.0302549
-0.0300398
-0.0295921
-0.0290533
-0.0284837
-0.0279034
-0.0274106
-0.0269456
-0.026519
-0.0261851
-0.0259255
-0.0256943
-0.0254698
-0.0252714
-0.0250721
-0.0248701
-0.0247028
-0.024536
-0.0243462
-0.0241843
-0.0240061
-0.0237942
-0.0236194
-0.023446
-0.0232588
-0.0230512
-0.0228297
-0.0226671
-0.0224774
-0.0222453
-0.0220526
-0.0218311
-0.0216326
-0.0214696
-0.0211998
-0.0209466
-0.0207962
-0.0205781
-0.0203004
-0.0200502
-0.019817
-0.0196169
-0.0193684
-0.0190365
-0.0187788
-0.0185792
-0.0182847
-0.0179569
-0.0176816
-0.0174043
-0.0170957
-0.0167791
-0.0164591
-0.0161421
-0.0158156
-0.0154704
-0.0151235
-0.0147792
-0.014419
-0.01405
-0.0136781
-0.0133014
-0.0129133
-0.0125187
-0.0121226
-0.0117153
-0.0113121
-0.0109011
-0.0105069
-0.0101199
-0.00978941
-0.00949833
-0.0289513
-0.0273201
-0.0255806
-0.0242191
-0.0233592
-0.0229292
-0.0227979
-0.0228169
-0.0229082
-0.0230266
-0.0231713
-0.0233959
-0.0237066
-0.0240835
-0.0244796
-0.0248998
-0.0252986
-0.025664
-0.025995
-0.0263314
-0.0267072
-0.0271162
-0.0276025
-0.0281491
-0.0287755
-0.0293798
-0.0298806
-0.0301867
-0.0302104
-0.0300047
-0.0295663
-0.0290362
-0.0284725
-0.027895
-0.0274038
-0.0269404
-0.0265157
-0.0261829
-0.0259243
-0.0256928
-0.0254676
-0.0252691
-0.0250703
-0.0248685
-0.0247011
-0.0245343
-0.024344
-0.0241823
-0.0240048
-0.0237926
-0.0236177
-0.0234442
-0.0232572
-0.0230501
-0.0228283
-0.0226655
-0.0224763
-0.0222444
-0.0220516
-0.0218299
-0.0216317
-0.0214692
-0.0211989
-0.0209455
-0.0207956
-0.0205777
-0.0202999
-0.0200496
-0.0198164
-0.0196166
-0.0193682
-0.019036
-0.0187784
-0.0185791
-0.0182845
-0.0179565
-0.0176814
-0.0174042
-0.0170955
-0.016779
-0.016459
-0.016142
-0.0158155
-0.0154704
-0.0151234
-0.0147791
-0.014419
-0.01405
-0.013678
-0.0133014
-0.0129133
-0.0125187
-0.0121226
-0.0117153
-0.0113121
-0.010901
-0.0105068
-0.0101198
-0.00978916
-0.00949814
-0.029188
-0.0275984
-0.0258236
-0.0244136
-0.0235091
-0.0230303
-0.0228554
-0.0228489
-0.0229262
-0.0230409
-0.023193
-0.0234269
-0.0237442
-0.0241242
-0.024522
-0.0249432
-0.0253413
-0.0257044
-0.0260339
-0.0263655
-0.0267342
-0.0271344
-0.0276075
-0.0281363
-0.0287378
-0.0293191
-0.0298015
-0.0300948
-0.0301188
-0.0299271
-0.0295089
-0.0289963
-0.0284465
-0.027878
-0.0273901
-0.0269294
-0.0265094
-0.0261804
-0.0259229
-0.0256919
-0.025466
-0.0252669
-0.0250682
-0.0248669
-0.0246995
-0.0245327
-0.0243421
-0.0241793
-0.0240023
-0.0237912
-0.0236158
-0.0234414
-0.0232544
-0.0230482
-0.0228268
-0.0226634
-0.0224737
-0.0222425
-0.0220504
-0.0218281
-0.0216295
-0.0214677
-0.0211977
-0.0209441
-0.020794
-0.020576
-0.0202988
-0.0200488
-0.0198151
-0.0196153
-0.0193674
-0.0190352
-0.0187775
-0.0185783
-0.0182838
-0.0179559
-0.0176809
-0.0174037
-0.0170951
-0.0167786
-0.0164586
-0.0161417
-0.0158153
-0.0154701
-0.0151232
-0.014779
-0.0144188
-0.0140498
-0.0136779
-0.0133013
-0.0129132
-0.0125186
-0.0121226
-0.0117152
-0.011312
-0.0109008
-0.0105067
-0.0101193
-0.0097881
-0.0094973
-0.0294251
-0.0278777
-0.0260892
-0.024638
-0.0236823
-0.0231403
-0.0229038
-0.0228572
-0.0229155
-0.0230269
-0.0231917
-0.0234433
-0.0237728
-0.0241604
-0.0245635
-0.0249878
-0.0253842
-0.0257454
-0.026075
-0.0264011
-0.0267594
-0.0271475
-0.0276052
-0.0281079
-0.028678
-0.0292292
-0.0296867
-0.0299679
-0.0299922
-0.0298197
-0.0294292
-0.0289399
-0.0284095
-0.027854
-0.0273725
-0.0269158
-0.0265037
-0.0261777
-0.025919
-0.0256897
-0.0254641
-0.0252654
-0.0250663
-0.0248643
-0.0246964
-0.0245298
-0.0243409
-0.024175
-0.0239974
-0.0237902
-0.023613
-0.0234371
-0.0232503
-0.0230438
-0.0228254
-0.0226615
-0.022468
-0.0222386
-0.0220496
-0.021826
-0.0216254
-0.021464
-0.0211963
-0.0209431
-0.0207907
-0.020572
-0.0202969
-0.0200481
-0.019813
-0.0196121
-0.0193654
-0.0190343
-0.018776
-0.0185762
-0.0182821
-0.0179548
-0.0176797
-0.0174024
-0.017094
-0.0167777
-0.0164577
-0.0161408
-0.0158145
-0.0154694
-0.0151226
-0.0147784
-0.0144183
-0.0140494
-0.0136775
-0.0133009
-0.0129129
-0.0125183
-0.0121224
-0.0117149
-0.0113118
-0.0109004
-0.0105062
-0.0101186
-0.00978582
-0.00949545
-0.0296208
-0.0281292
-0.0263674
-0.0248994
-0.0238911
-0.023273
-0.0229559
-0.0228501
-0.0228789
-0.0229862
-0.0231696
-0.023447
-0.0237962
-0.0241963
-0.0246101
-0.0250377
-0.0254304
-0.02579
-0.0261183
-0.0264369
-0.0267801
-0.0271556
-0.0275951
-0.0280658
-0.0286017
-0.0291182
-0.0295487
-0.0298186
-0.0298465
-0.0296985
-0.0293418
-0.0288801
-0.0283704
-0.0278285
-0.0273536
-0.026904
-0.0265029
-0.0261785
-0.0259166
-0.0256876
-0.0254617
-0.0252636
-0.0250647
-0.0248633
-0.0246935
-0.0245262
-0.02434
-0.0241686
-0.0239909
-0.0237906
-0.0236098
-0.0234311
-0.0232443
-0.023038
-0.0228251
-0.0226587
-0.0224593
-0.0222339
-0.0220488
-0.0218235
-0.0216196
-0.021458
-0.0211947
-0.0209426
-0.0207857
-0.0205657
-0.0202941
-0.0200475
-0.0198101
-0.0196066
-0.0193619
-0.0190334
-0.0187739
-0.0185723
-0.0182793
-0.0179532
-0.0176777
-0.0174
-0.017092
-0.0167761
-0.0164561
-0.0161392
-0.0158131
-0.0154682
-0.0151215
-0.0147773
-0.0144174
-0.0140485
-0.0136768
-0.0133002
-0.0129124
-0.0125176
-0.0121219
-0.0117143
-0.0113113
-0.0108997
-0.0105053
-0.0101175
-0.00978222
-0.00949246
-0.0297628
-0.0283479
-0.0266638
-0.025212
-0.0241526
-0.0234449
-0.0230285
-0.0228431
-0.0228277
-0.0229291
-0.0231364
-0.0234474
-0.0238233
-0.0242419
-0.0246696
-0.0250992
-0.0254864
-0.025841
-0.026165
-0.0264717
-0.0267984
-0.0271591
-0.0275767
-0.0280156
-0.0285155
-0.0289978
-0.0293996
-0.0296576
-0.0296926
-0.0295708
-0.0292533
-0.0288227
-0.0283349
-0.0278062
-0.0273352
-0.0268935
-0.0265047
-0.026183
-0.0259175
-0.0256872
-0.0254597
-0.0252605
-0.0250622
-0.0248626
-0.024691
-0.0245236
-0.0243389
-0.0241604
-0.0239837
-0.0237916
-0.0236068
-0.0234239
-0.0232363
-0.0230323
-0.0228258
-0.0226544
-0.0224487
-0.0222289
-0.0220479
-0.0218205
-0.0216125
-0.0214504
-0.0211931
-0.0209422
-0.0207792
-0.0205576
-0.0202909
-0.020047
-0.0198063
-0.0195995
-0.0193575
-0.0190327
-0.018771
-0.0185669
-0.0182756
-0.0179512
-0.017675
-0.0173968
-0.0170894
-0.0167739
-0.0164539
-0.016137
-0.0158111
-0.0154665
-0.0151199
-0.0147758
-0.0144161
-0.0140473
-0.0136758
-0.0132991
-0.0129116
-0.0125167
-0.0121213
-0.0117134
-0.0113106
-0.0108987
-0.0105039
-0.010116
-0.00977751
-0.00948848
-0.0298267
-0.0285379
-0.0269834
-0.0255805
-0.0244729
-0.0236621
-0.0231307
-0.0228478
-0.0227746
-0.0228667
-0.0231015
-0.0234506
-0.0238579
-0.0243014
-0.0247429
-0.0251733
-0.0255534
-0.0259004
-0.0262162
-0.0265076
-0.026818
-0.0271572
-0.0275502
-0.0279595
-0.0284244
-0.0288761
-0.0292477
-0.029494
-0.0295361
-0.0294383
-0.0291623
-0.0287656
-0.0283034
-0.0277898
-0.0273209
-0.0268835
-0.026505
-0.0261877
-0.0259188
-0.0256877
-0.0254592
-0.0252577
-0.0250591
-0.0248591
-0.0246875
-0.0245216
-0.0243372
-0.024152
-0.0239764
-0.0237921
-0.0236031
-0.023415
-0.0232276
-0.023027
-0.0228259
-0.0226492
-0.0224375
-0.0222234
-0.0220465
-0.0218171
-0.0216049
-0.0214422
-0.0211913
-0.0209416
-0.0207717
-0.0205488
-0.0202875
-0.0200463
-0.0198018
-0.0195914
-0.0193527
-0.0190318
-0.0187677
-0.0185608
-0.0182716
-0.017949
-0.0176719
-0.0173931
-0.0170865
-0.0167714
-0.0164514
-0.0161345
-0.0158088
-0.0154645
-0.0151181
-0.014774
-0.0144145
-0.0140458
-0.0136746
-0.0132978
-0.0129105
-0.0125155
-0.0121204
-0.0117123
-0.0113097
-0.0108975
-0.0105021
-0.0101141
-0.00977204
-0.00948381
-0.0298065
-0.0287063
-0.0273235
-0.0259942
-0.0248405
-0.0239151
-0.0232549
-0.0228617
-0.0227206
-0.0228003
-0.0230635
-0.0234525
-0.0238966
-0.0243696
-0.0248269
-0.0252568
-0.0256297
-0.0259679
-0.0262716
-0.0265469
-0.0268369
-0.0271486
-0.0275141
-0.0278949
-0.0283276
-0.0287502
-0.0290962
-0.0293336
-0.0293815
-0.0293049
-0.0290669
-0.0287033
-0.0282689
-0.0277744
-0.0273111
-0.026876
-0.0265041
-0.0261894
-0.0259161
-0.0256858
-0.0254585
-0.0252561
-0.0250561
-0.0248539
-0.0246818
-0.0245171
-0.0243345
-0.024144
-0.0239685
-0.0237928
-0.0235984
-0.023404
-0.0232192
-0.0230213
-0.0228247
-0.0226439
-0.0224262
-0.0222171
-0.0220442
-0.0218132
-0.0215974
-0.0214337
-0.0211888
-0.0209404
-0.0207638
-0.0205397
-0.0202839
-0.0200453
-0.0197971
-0.019583
-0.0193475
-0.0190309
-0.0187641
-0.0185543
-0.0182673
-0.0179467
-0.0176684
-0.0173891
-0.0170833
-0.0167686
-0.0164486
-0.0161316
-0.0158063
-0.0154623
-0.0151161
-0.0147719
-0.0144127
-0.0140441
-0.0136732
-0.0132963
-0.0129094
-0.0125142
-0.0121194
-0.0117111
-0.0113085
-0.0108962
-0.0104999
-0.0101118
-0.00976618
-0.00947868
-0.029848
-0.0288783
-0.0276859
-0.0264381
-0.0252331
-0.0241818
-0.0233804
-0.0228688
-0.0226552
-0.0227239
-0.0230155
-0.0234481
-0.0239356
-0.0244434
-0.0249208
-0.0253485
-0.0257136
-0.0260388
-0.0263275
-0.0265849
-0.02685
-0.0271339
-0.0274693
-0.0278218
-0.0282208
-0.0286148
-0.0289431
-0.0291756
-0.0292318
-0.0291752
-0.0289694
-0.0286323
-0.0282226
-0.0277512
-0.0272985
-0.0268709
-0.0265054
-0.026189
-0.0259092
-0.0256791
-0.0254549
-0.0252521
-0.0250515
-0.0248493
-0.0246743
-0.0245092
-0.0243316
-0.0241357
-0.0239584
-0.0237922
-0.0235934
-0.023393
-0.0232097
-0.0230137
-0.0228226
-0.0226384
-0.0224142
-0.0222101
-0.022041
-0.0218087
-0.0215894
-0.0214243
-0.0211857
-0.020939
-0.0207553
-0.0205298
-0.0202797
-0.0200439
-0.0197922
-0.019574
-0.0193416
-0.0190297
-0.0187604
-0.0185471
-0.0182625
-0.0179441
-0.0176647
-0.0173847
-0.0170799
-0.0167656
-0.0164455
-0.0161286
-0.0158036
-0.0154598
-0.0151139
-0.0147697
-0.0144108
-0.0140422
-0.0136716
-0.0132946
-0.0129081
-0.0125128
-0.0121182
-0.0117098
-0.0113071
-0.0108948
-0.0104974
-0.0101091
-0.00976011
-0.0094731
-0.0299645
-0.0291068
-0.0280975
-0.0269037
-0.0256248
-0.0244325
-0.0234819
-0.0228511
-0.0225715
-0.0226362
-0.0229602
-0.0234425
-0.0239798
-0.0245278
-0.0250266
-0.025452
-0.0258049
-0.0261096
-0.0263802
-0.0266163
-0.0268601
-0.0271191
-0.0274243
-0.0277481
-0.0281056
-0.0284706
-0.0287829
-0.029013
-0.029085
-0.0290492
-0.0288747
-0.028557
-0.0281667
-0.0277186
-0.0272762
-0.0268615
-0.0265065
-0.0261907
-0.025904
-0.0256703
-0.0254475
-0.0252428
-0.0250447
-0.0248452
-0.0246657
-0.0245011
-0.0243291
-0.0241281
-0.0239474
-0.0237877
-0.0235878
-0.0233841
-0.0231996
-0.0230044
-0.0228206
-0.0226328
-0.0224012
-0.0222022
-0.0220379
-0.0218047
-0.0215805
-0.0214131
-0.0211829
-0.0209385
-0.0207458
-0.0205187
-0.0202753
-0.0200427
-0.0197869
-0.0195641
-0.0193351
-0.0190285
-0.0187565
-0.0185393
-0.0182573
-0.0179414
-0.0176607
-0.0173799
-0.0170761
-0.0167624
-0.0164422
-0.0161252
-0.0158007
-0.0154572
-0.0151115
-0.0147673
-0.0144088
-0.0140402
-0.01367
-0.0132929
-0.0129067
-0.0125114
-0.012117
-0.0117085
-0.0113055
-0.0108933
-0.0104945
-0.0101061
-0.00975391
-0.00946705
-0.0301467
-0.0294948
-0.0286075
-0.0273807
-0.0259751
-0.0246236
-0.023526
-0.0227906
-0.0224664
-0.0225408
-0.022906
-0.0234442
-0.0240366
-0.0246269
-0.0251458
-0.0255707
-0.0259069
-0.0261831
-0.0264287
-0.0266417
-0.0268691
-0.0271055
-0.0273837
-0.0276797
-0.0279919
-0.0283255
-0.0286152
-0.0288424
-0.0289351
-0.0289222
-0.0287817
-0.0284823
-0.0281094
-0.0276815
-0.0272451
-0.0268418
-0.0264997
-0.0261933
-0.0259045
-0.0256648
-0.0254377
-0.0252283
-0.0250371
-0.0248403
-0.0246562
-0.0244933
-0.0243241
-0.0241211
-0.0239394
-0.0237823
-0.0235803
-0.023374
-0.0231893
-0.0229964
-0.0228186
-0.0226264
-0.0223876
-0.0221934
-0.0220348
-0.021802
-0.0215711
-0.0214
-0.0211802
-0.0209392
-0.0207357
-0.0205063
-0.020271
-0.0200418
-0.0197814
-0.0195535
-0.0193282
-0.0190274
-0.0187524
-0.0185309
-0.0182518
-0.0179387
-0.0176564
-0.0173747
-0.0170722
-0.0167591
-0.0164387
-0.0161217
-0.0157977
-0.0154544
-0.015109
-0.0147647
-0.0144066
-0.0140381
-0.0136682
-0.0132911
-0.0129052
-0.0125098
-0.0121155
-0.0117072
-0.0113037
-0.0108917
-0.0104913
-0.0101029
-0.0097476
-0.00946051
-0.0309208
-0.0302435
-0.0292574
-0.0278439
-0.026231
-0.024701
-0.0234714
-0.0226666
-0.0223305
-0.0224344
-0.0228516
-0.0234526
-0.0241063
-0.0247386
-0.0252793
-0.0257057
-0.0260256
-0.0262657
-0.0264748
-0.0266616
-0.0268683
-0.0270839
-0.0273398
-0.0276144
-0.0278905
-0.0281897
-0.0284509
-0.0286708
-0.0287805
-0.0287869
-0.0286797
-0.0284033
-0.0280502
-0.0276426
-0.0272121
-0.026818
-0.0264857
-0.0261909
-0.0259057
-0.0256615
-0.0254275
-0.0252105
-0.025027
-0.0248357
-0.0246484
-0.0244849
-0.0243138
-0.02411
-0.0239329
-0.0237815
-0.0235737
-0.0233587
-0.0231758
-0.0229901
-0.0228166
-0.0226181
-0.0223742
-0.0221844
-0.0220297
-0.0217987
-0.0215622
-0.0213856
-0.0211762
-0.0209399
-0.020725
-0.0204928
-0.0202661
-0.0200407
-0.0197753
-0.0195421
-0.0193207
-0.0190261
-0.018748
-0.0185218
-0.0182458
-0.0179357
-0.0176518
-0.017369
-0.017068
-0.0167555
-0.0164349
-0.0161178
-0.0157943
-0.0154513
-0.0151063
-0.0147619
-0.0144042
-0.0140358
-0.0136663
-0.013289
-0.0129035
-0.0125081
-0.0121138
-0.0117057
-0.0113016
-0.01089
-0.0104877
-0.0100992
-0.00974116
-0.00945351
-0.0323067
-0.0314399
-0.0300572
-0.0282558
-0.0263445
-0.0246181
-0.0232833
-0.0224545
-0.022145
-0.0223023
-0.0227851
-0.0234604
-0.0241839
-0.0248608
-0.0254266
-0.0258557
-0.0261607
-0.0263585
-0.0265209
-0.026674
-0.0268504
-0.0270457
-0.0272819
-0.027545
-0.0277986
-0.0280682
-0.0283032
-0.0285117
-0.0286307
-0.0286433
-0.0285622
-0.0283115
-0.0279802
-0.0275988
-0.0271796
-0.0267996
-0.026474
-0.026184
-0.0259026
-0.0256543
-0.0254181
-0.0251935
-0.0250124
-0.0248303
-0.0246443
-0.0244792
-0.0243021
-0.0240935
-0.0239219
-0.0237812
-0.0235717
-0.0233444
-0.023159
-0.0229826
-0.0228139
-0.0226078
-0.0223616
-0.0221767
-0.0220221
-0.0217931
-0.0215534
-0.0213711
-0.0211718
-0.0209402
-0.0207132
-0.0204783
-0.0202608
-0.0200391
-0.0197687
-0.01953
-0.0193124
-0.0190245
-0.0187433
-0.018512
-0.0182392
-0.0179325
-0.0176468
-0.0173629
-0.0170635
-0.0167515
-0.0164307
-0.0161135
-0.0157907
-0.015448
-0.0151033
-0.0147588
-0.0144016
-0.0140333
-0.0136641
-0.0132869
-0.0129017
-0.0125064
-0.012112
-0.0117042
-0.0112993
-0.0108881
-0.0104839
-0.0100951
-0.00973456
-0.00944605
-0.0344649
-0.0330456
-0.0309473
-0.028576
-0.0262845
-0.0243475
-0.022937
-0.0221262
-0.0218832
-0.0221224
-0.0226938
-0.0234601
-0.0242623
-0.0249901
-0.0255813
-0.0260117
-0.026299
-0.026454
-0.0265681
-0.0266791
-0.0268208
-0.0269929
-0.0272061
-0.0274599
-0.0276959
-0.0279486
-0.0281695
-0.0283694
-0.0284972
-0.0285037
-0.0284363
-0.0282055
-0.0278916
-0.0275394
-0.0271384
-0.0267828
-0.026466
-0.0261777
-0.0258993
-0.0256425
-0.0254063
-0.025178
-0.0249961
-0.0248197
-0.024636
-0.024475
-0.0242949
-0.0240792
-0.0239063
-0.0237714
-0.0235683
-0.0233369
-0.0231442
-0.0229723
-0.0228082
-0.0225952
-0.0223489
-0.0221695
-0.0220139
-0.0217869
-0.0215436
-0.0213552
-0.0211673
-0.0209406
-0.0207003
-0.0204631
-0.0202552
-0.0200369
-0.019762
-0.0195177
-0.0193032
-0.0190224
-0.0187387
-0.0185018
-0.0182321
-0.017929
-0.0176415
-0.0173563
-0.0170586
-0.0167473
-0.0164263
-0.016109
-0.0157869
-0.0154444
-0.0151001
-0.0147557
-0.0143989
-0.0140307
-0.0136618
-0.0132848
-0.0128996
-0.0125047
-0.0121099
-0.0117026
-0.0112968
-0.0108859
-0.0104799
-0.0100906
-0.00972776
-0.00943816
-0.036627
-0.0347291
-0.0318326
-0.0287853
-0.0260527
-0.0238945
-0.0224273
-0.021666
-0.0215261
-0.0218839
-0.0225773
-0.023452
-0.02434
-0.0251228
-0.0257403
-0.026169
-0.0264325
-0.0265492
-0.0266185
-0.0266846
-0.0267894
-0.0269338
-0.0271175
-0.0273547
-0.0275717
-0.0278152
-0.0280352
-0.0282348
-0.0283789
-0.0283807
-0.0283147
-0.028093
-0.0277873
-0.0274591
-0.0270826
-0.0267597
-0.0264554
-0.0261701
-0.0258981
-0.0256317
-0.0253902
-0.0251608
-0.0249839
-0.0248085
-0.0246185
-0.0244629
-0.0242882
-0.0240743
-0.0238962
-0.0237529
-0.023556
-0.0233305
-0.0231333
-0.0229619
-0.0227996
-0.0225815
-0.0223362
-0.0221603
-0.0220044
-0.0217821
-0.0215337
-0.0213366
-0.0211614
-0.0209409
-0.020687
-0.0204477
-0.020249
-0.020033
-0.0197545
-0.0195055
-0.0192933
-0.0190193
-0.0187337
-0.018491
-0.0182243
-0.0179251
-0.0176359
-0.0173492
-0.0170533
-0.0167428
-0.0164215
-0.0161042
-0.0157828
-0.0154407
-0.0150967
-0.0147523
-0.0143959
-0.0140279
-0.0136592
-0.0132825
-0.0128973
-0.0125028
-0.0121076
-0.0117009
-0.011294
-0.0108834
-0.0104757
-0.0100855
-0.00972075
-0.00942996
-0.0387966
-0.0363454
-0.0326389
-0.0288873
-0.025687
-0.0232994
-0.0217806
-0.021088
-0.0210798
-0.0215944
-0.0224413
-0.0234366
-0.0244158
-0.0252561
-0.025908
-0.0263344
-0.0265702
-0.0266509
-0.0266744
-0.0266946
-0.026754
-0.0268697
-0.0270236
-0.0272409
-0.0274424
-0.0276722
-0.0278935
-0.0280926
-0.0282562
-0.0282657
-0.0281967
-0.0279833
-0.0276802
-0.0273666
-0.0270179
-0.0267302
-0.026441
-0.0261568
-0.0258905
-0.025618
-0.0253711
-0.0251427
-0.0249753
-0.0248031
-0.0246018
-0.0244408
-0.0242696
-0.0240695
-0.0238944
-0.0237366
-0.0235392
-0.02332
-0.0231215
-0.0229523
-0.0227893
-0.0225665
-0.0223258
-0.0221494
-0.0219893
-0.0217771
-0.0215269
-0.0213172
-0.0211531
-0.0209402
-0.0206727
-0.0204322
-0.0202432
-0.0200276
-0.0197455
-0.0194937
-0.0192834
-0.0190153
-0.0187281
-0.01848
-0.018216
-0.0179208
-0.0176299
-0.0173417
-0.0170478
-0.0167381
-0.0164164
-0.0160991
-0.0157785
-0.0154367
-0.015093
-0.0147487
-0.0143925
-0.0140249
-0.0136563
-0.01328
-0.0128946
-0.0125007
-0.012105
-0.0116989
-0.011291
-0.0108805
-0.0104713
-0.0100799
-0.00971355
-0.00942141
-0.0409519
-0.0378324
-0.0333327
-0.0289051
-0.0252471
-0.0226276
-0.0210566
-0.0204411
-0.0205816
-0.0212743
-0.0222889
-0.0234096
-0.0244845
-0.0253895
-0.0260877
-0.0265179
-0.0267274
-0.0267705
-0.0267422
-0.0267107
-0.0267109
-0.0267963
-0.0269262
-0.0271293
-0.0273275
-0.0275388
-0.0277572
-0.0279431
-0.0281138
-0.0281376
-0.0280689
-0.0278773
-0.0275801
-0.0272731
-0.0269493
-0.0266926
-0.0264263
-0.0261457
-0.0258793
-0.0255958
-0.0253443
-0.025124
-0.0249623
-0.0247966
-0.0245946
-0.0244221
-0.024242
-0.0240531
-0.0238892
-0.0237242
-0.0235264
-0.023309
-0.0231067
-0.0229427
-0.0227762
-0.0225449
-0.0223167
-0.0221421
-0.0219694
-0.0217683
-0.0215224
-0.0212978
-0.0211428
-0.0209389
-0.0206564
-0.0204151
-0.0202385
-0.0200222
-0.0197345
-0.0194809
-0.0192735
-0.0190108
-0.0187219
-0.0184683
-0.0182071
-0.0179162
-0.0176235
-0.0173338
-0.0170417
-0.0167329
-0.0164108
-0.0160936
-0.0157737
-0.0154323
-0.0150888
-0.0147447
-0.0143889
-0.0140217
-0.0136532
-0.0132774
-0.0128918
-0.0124986
-0.0121023
-0.0116968
-0.0112879
-0.0108772
-0.0104667
-0.0100738
-0.00970603
-0.00941246
-0.0428871
-0.0391249
-0.0339028
-0.0288717
-0.0247982
-0.0219575
-0.0203393
-0.0198028
-0.0200956
-0.02096
-0.0221334
-0.0233772
-0.0245503
-0.0255269
-0.0262715
-0.0267136
-0.0269043
-0.0269148
-0.026834
-0.0267453
-0.0266765
-0.0267185
-0.0268227
-0.0270129
-0.0272214
-0.027428
-0.0276495
-0.0278166
-0.0279711
-0.0279964
-0.0279233
-0.0277605
-0.0274788
-0.0271812
-0.0268789
-0.0266425
-0.0264076
-0.0261438
-0.0258818
-0.0255803
-0.0253108
-0.0250992
-0.024938
-0.0247799
-0.0245926
-0.0244133
-0.0242212
-0.024032
-0.0238734
-0.0237095
-0.0235148
-0.0232992
-0.0230923
-0.0229332
-0.0227641
-0.0225192
-0.0223033
-0.0221381
-0.0219504
-0.021755
-0.0215163
-0.0212784
-0.0211317
-0.0209385
-0.0206403
-0.0203956
-0.0202327
-0.0200173
-0.0197237
-0.0194675
-0.0192622
-0.0190055
-0.0187158
-0.0184564
-0.0181974
-0.017911
-0.0176168
-0.0173252
-0.0170351
-0.0167273
-0.0164048
-0.0160875
-0.0157684
-0.0154276
-0.0150843
-0.0147406
-0.0143849
-0.0140184
-0.0136498
-0.0132747
-0.0128889
-0.0124963
-0.0120994
-0.0116943
-0.0112846
-0.0108733
-0.0104617
-0.0100671
-0.00969812
-0.0094033
-0.0444852
-0.0401596
-0.034338
-0.0288105
-0.0243909
-0.0213593
-0.0197062
-0.019247
-0.0196818
-0.0206936
-0.0220019
-0.0233581
-0.0246205
-0.0256594
-0.0264318
-0.026887
-0.0270732
-0.0270691
-0.0269499
-0.0268084
-0.0266745
-0.0266539
-0.026719
-0.0268842
-0.0271036
-0.0273274
-0.0275671
-0.02773
-0.0278557
-0.0278639
-0.0277693
-0.0276167
-0.0273568
-0.0270836
-0.0268101
-0.0265827
-0.0263714
-0.0261307
-0.0258871
-0.0255834
-0.0252898
-0.0250721
-0.0249017
-0.0247531
-0.0245878
-0.0244022
-0.0242054
-0.0240136
-0.0238521
-0.0236921
-0.0234959