/*--------------------------------*- C++ -*----------------------------------*\
  =========                 |
  \\      /  F ield         | OpenFOAM: The Open Source CFD Toolbox
   \\    /   O peration     | Website:  https://openfoam.org
    \\  /    A nd           | Version:  6
     \\/     M anipulation  |
\*---------------------------------------------------------------------------*/
FoamFile
{
    version     2.0;
    format      ascii;
    class       surfaceScalarField;
    location    "0.8";
    object      phi;
}
// * * * * * * * * * * * * * * * * * * * * * * * * * * * * * * * * * * * * * //

dimensions      [0 3 -1 0 0 0 0];

internalField   nonuniform List<scalar> 
9440
(
3.88168e-06
-2.81774e-08
3.87871e-06
4.67598e-08
3.8851e-06
-1.88937e-08
3.88179e-06
5.03414e-08
3.88945e-06
-1.93699e-08
3.89056e-06
2.00281e-08
3.90442e-06
-1.88036e-08
3.90599e-06
3.62955e-08
3.92932e-06
1.05963e-09
3.93193e-06
3.44564e-08
3.96515e-06
7.00446e-10
3.96704e-06
1.64859e-08
4.01502e-06
-1.09148e-08
4.03666e-06
2.49046e-09
4.07084e-06
-1.36924e-08
4.07526e-06
-6.48955e-09
4.07155e-06
-4.69275e-08
4.07351e-06
-6.8792e-08
4.08188e-06
-7.74514e-08
2.20924e-08
3.9588e-06
4.18326e-06
-2.55756e-08
4.19024e-06
3.97737e-08
4.18916e-06
-1.78116e-08
4.19697e-06
4.25342e-08
4.19654e-06
-1.89397e-08
4.20863e-06
7.93234e-09
4.21339e-06
-2.35588e-08
4.22833e-06
2.13551e-08
4.2411e-06
-1.17055e-08
4.25815e-06
1.74009e-08
4.26938e-06
-1.05268e-08
4.28199e-06
3.87023e-09
4.28601e-06
-1.49302e-08
4.29796e-06
-9.46462e-09
4.31136e-06
-2.70896e-08
4.34149e-06
-3.66219e-08
4.36958e-06
-7.50178e-08
4.38861e-06
-8.78197e-08
4.40858e-06
-9.74243e-08
1.68942e-07
4.26174e-06
4.517e-06
-2.25122e-08
4.52344e-06
3.33341e-08
4.52221e-06
-1.6579e-08
4.52866e-06
3.60793e-08
4.52887e-06
-1.91523e-08
4.54095e-06
-4.14094e-09
4.5461e-06
-2.87084e-08
4.56045e-06
7.00184e-09
4.57649e-06
-2.77429e-08
4.59316e-06
7.26114e-10
4.60892e-06
-2.62818e-08
4.62108e-06
-8.29032e-09
4.63085e-06
-2.47013e-08
4.64582e-06
-2.44386e-08
4.67003e-06
-5.12978e-08
4.70708e-06
-7.36725e-08
4.73437e-06
-1.02302e-07
4.74302e-06
-9.64737e-08
4.61973e-06
2.5861e-08
2.02475e-07
4.5862e-06
4.87917e-06
-2.073e-08
4.88522e-06
2.72816e-08
4.88259e-06
-1.39552e-08
4.88987e-06
2.88023e-08
4.88843e-06
-1.77132e-08
4.90281e-06
-1.85208e-08
4.90686e-06
-3.27539e-08
4.92284e-06
-8.98266e-09
4.9383e-06
-4.31987e-08
4.95766e-06
-1.86348e-08
4.97558e-06
-4.42005e-08
4.9908e-06
-2.35156e-08
5.00745e-06
-4.13517e-08
5.03072e-06
-4.77026e-08
5.0648e-06
-8.53849e-08
5.10503e-06
-1.13897e-07
5.1286e-06
-1.2587e-07
5.11917e-06
-8.70436e-08
4.93853e-06
2.06497e-07
2.11523e-07
4.92948e-06
5.26922e-06
-1.9308e-08
5.27664e-06
1.98704e-08
5.27081e-06
-8.12539e-09
5.28085e-06
1.87553e-08
5.27681e-06
-1.36686e-08
5.29437e-06
-3.60776e-08
5.29644e-06
-3.48331e-08
5.31577e-06
-2.83097e-08
5.32887e-06
-5.6295e-08
5.35229e-06
-4.20616e-08
5.37137e-06
-6.32769e-08
5.39348e-06
-4.56213e-08
5.41879e-06
-6.66604e-08
5.4545e-06
-8.3418e-08
5.49308e-06
-1.23963e-07
5.53292e-06
-1.53738e-07
5.54392e-06
-1.36867e-07
5.28615e-06
1.70725e-07
5.3119e-06
1.80747e-07
2.16379e-07
5.30704e-06
5.69001e-06
-1.7856e-08
5.69882e-06
1.10614e-08
5.68996e-06
7.29022e-10
5.70248e-06
6.23522e-09
5.69692e-06
-8.10955e-09
5.71647e-06
-5.56237e-08
5.71687e-06
-3.52376e-08
5.73956e-06
-5.0999e-08
5.75095e-06
-6.76776e-08
5.77883e-06
-6.9942e-08
5.79923e-06
-8.36832e-08
5.83237e-06
-7.87559e-08
5.86799e-06
-1.02286e-07
5.91494e-06
-1.30361e-07
5.95079e-06
-1.59815e-07
5.98557e-06
-1.88523e-07
5.71456e-06
1.34149e-07
5.70024e-06
1.85044e-07
5.70733e-06
1.73654e-07
2.03198e-07
5.72051e-06
6.14431e-06
-1.62934e-08
6.15389e-06
1.48318e-09
6.14315e-06
1.14685e-08
6.15688e-06
-7.50177e-09
6.15176e-06
-2.98214e-09
6.17099e-06
-7.48597e-08
6.17123e-06
-3.54758e-08
6.19589e-06
-7.56581e-08
6.20754e-06
-7.93305e-08
6.23946e-06
-1.01858e-07
6.26341e-06
-1.07639e-07
6.30962e-06
-1.24965e-07
6.35656e-06
-1.49221e-07
6.40818e-06
-1.81984e-07
6.43094e-06
-1.82575e-07
6.23796e-06
4.45734e-09
6.15871e-06
2.13402e-07
6.14277e-06
2.00983e-07
6.13494e-06
1.8148e-07
1.68033e-07
6.17011e-06
6.63504e-06
-1.47669e-08
6.64457e-06
-8.05523e-09
6.63358e-06
2.24592e-08
6.64657e-06
-2.04907e-08
6.64418e-06
-5.93567e-10
6.66043e-06
-9.11035e-08
6.6627e-06
-3.77511e-08
6.68767e-06
-1.00626e-07
6.70162e-06
-9.32761e-08
6.7369e-06
-1.37147e-07
6.76717e-06
-1.37904e-07
6.82564e-06
-1.83432e-07
6.88008e-06
-2.03661e-07
6.92652e-06
-2.28427e-07
6.87316e-06
-1.29221e-07
6.65533e-06
2.22286e-07
6.64007e-06
2.28666e-07
6.62229e-06
2.18767e-07
6.59187e-06
2.11895e-07
-2.05475e-07
6.96538e-06
7.16565e-06
-1.39832e-08
7.17246e-06
-1.48685e-08
7.16559e-06
2.93239e-08
7.17384e-06
-2.87382e-08
7.1778e-06
-4.55149e-09
7.18749e-06
-1.00796e-07
7.19502e-06
-4.52737e-08
7.21832e-06
-1.23932e-07
7.23626e-06
-1.1121e-07
7.27463e-06
-1.75516e-07
7.31104e-06
-1.74322e-07
7.3783e-06
-2.50687e-07
7.42635e-06
-2.5171e-07
7.42934e-06
-2.31415e-07
7.15775e-06
1.42363e-07
7.17214e-06
2.07902e-07
7.163e-06
2.37803e-07
7.14118e-06
2.40584e-07
7.10014e-06
2.52934e-07
-2.81495e-07
7.17616e-06
7.73985e-06
-1.52312e-08
7.73685e-06
-1.18686e-08
7.74456e-06
2.16189e-08
7.74055e-06
-2.47344e-08
7.75755e-06
-2.15519e-08
7.7544e-06
-9.76415e-08
7.77356e-06
-6.4432e-08
7.78977e-06
-1.40147e-07
7.81694e-06
-1.38376e-07
7.85274e-06
-2.11322e-07
7.89682e-06
-2.184e-07
7.95304e-06
-3.06902e-07
7.95337e-06
-2.5204e-07
7.74279e-06
-2.08416e-08
7.71036e-06
1.74798e-07
7.72761e-06
1.9065e-07
7.73219e-06
2.33227e-07
7.71808e-06
2.54687e-07
7.63686e-06
3.34158e-07
-3.90701e-07
7.74607e-06
8.36061e-06
-1.93768e-08
8.34092e-06
7.81763e-09
8.3733e-06
-1.07624e-08
8.35098e-06
-2.41659e-09
8.38685e-06
-5.74218e-08
8.36493e-06
-7.57222e-08
8.40297e-06
-1.02469e-07
8.40444e-06
-1.41617e-07
8.44895e-06
-1.82889e-07
8.46837e-06
-2.3074e-07
8.52131e-06
-2.71335e-07
8.50553e-06
-2.91129e-07
8.41572e-06
-1.62225e-07
8.3042e-06
9.06825e-08
8.31479e-06
1.64207e-07
8.32584e-06
1.79597e-07
8.34775e-06
2.1132e-07
8.36056e-06
2.41874e-07
8.84464e-06
-1.49926e-07
-3.82669e-07
8.83661e-06
9.029e-06
-2.47311e-08
8.9999e-06
3.6919e-08
9.04601e-06
-5.6874e-08
9.01598e-06
2.76167e-08
9.05998e-06
-1.01423e-07
9.02935e-06
-4.50932e-08
9.07876e-06
-1.51879e-07
9.07036e-06
-1.33215e-07
9.12643e-06
-2.38959e-07
9.12665e-06
-2.30958e-07
9.16522e-06
-3.09907e-07
9.09731e-06
-2.23217e-07
8.99758e-06
-6.2494e-08
8.94661e-06
1.41646e-07
8.96246e-06
1.48358e-07
8.97177e-06
1.70286e-07
9.01196e-06
1.71134e-07
9.06534e-06
1.88495e-07
9.48266e-06
-5.67249e-07
-4.63183e-07
9.56317e-06
9.74653e-06
-2.71549e-08
9.72948e-06
5.39641e-08
9.758e-06
-8.53975e-08
9.74609e-06
3.95314e-08
9.77173e-06
-1.27063e-07
9.75862e-06
-3.19805e-08
9.79467e-06
-1.87931e-07
9.79764e-06
-1.36183e-07
9.83891e-06
-2.80227e-07
9.83857e-06
-2.30617e-07
9.83202e-06
-3.03358e-07
9.75434e-06
-1.45545e-07
9.66961e-06
2.22428e-08
9.65109e-06
1.6016e-07
9.65543e-06
1.44025e-07
9.66546e-06
1.60257e-07
9.74494e-06
9.16538e-08
1.04426e-05
-5.09167e-07
1.04176e-05
-5.42248e-07
-3.7548e-07
1.03299e-05
1.05192e-05
-2.43129e-08
1.05284e-05
4.4785e-08
1.05185e-05
-7.55136e-08
1.05419e-05
1.61993e-08
1.05326e-05
-1.17758e-07
1.05546e-05
-5.40059e-08
1.05595e-05
-1.92845e-07
1.05881e-05
-1.64752e-07
1.05945e-05
-2.86697e-07
1.06037e-05
-2.39758e-07
1.05527e-05
-2.5236e-07
1.04752e-05
-6.81082e-08
1.04147e-05
8.27433e-08
1.04153e-05
1.59582e-07
1.04065e-05
1.52799e-07
1.03955e-05
1.71267e-07
1.0583e-05
-9.57927e-08
1.07216e-05
-6.47735e-07
1.05652e-05
-3.85872e-07
-4.31335e-07
1.0621e-05
1.13562e-05
-1.83494e-08
1.13827e-05
1.8315e-08
1.13483e-05
-4.11097e-08
1.13938e-05
-2.93352e-08
1.13627e-05
-8.66855e-08
1.14084e-05
-9.96492e-08
1.13907e-05
-1.75132e-07
1.14321e-05
-2.06234e-07
1.14112e-05
-2.65716e-07
1.1416e-05
-2.4461e-07
1.13368e-05
-1.7309e-07
1.12707e-05
-2.06973e-09
1.12286e-05
1.24813e-07
1.12352e-05
1.52992e-07
1.12242e-05
1.63794e-07
1.11929e-05
2.02646e-07
1.14275e-05
-3.30464e-07
1.1312e-05
-5.32178e-07
1.13722e-05
-4.46061e-07
-4.79498e-07
1.14203e-05
1.22642e-05
-1.3195e-08
1.22899e-05
-7.40662e-09
1.226e-05
-1.11673e-08
1.22999e-05
-6.92408e-08
1.22742e-05
-6.09747e-08
1.23159e-05
-1.41431e-07
1.22975e-05
-1.56709e-07
1.23264e-05
-2.35167e-07
1.22973e-05
-2.36536e-07
1.22781e-05
-2.25464e-07
1.21931e-05
-8.80633e-08
1.21416e-05
4.94745e-08
1.21128e-05
1.53569e-07
1.21098e-05
1.55945e-07
1.20959e-05
1.77725e-07
1.20975e-05
2.01078e-07
1.23106e-05
-5.43555e-07
1.22885e-05
-5.10096e-07
1.23236e-05
-4.81161e-07
-5.07861e-07
1.23519e-05
1.32478e-05
-1.2059e-08
1.32589e-05
-1.8489e-08
1.32558e-05
-8.05393e-09
1.32683e-05
-8.18054e-08
1.3269e-05
-6.16424e-08
1.32842e-05
-1.56599e-07
1.32817e-05
-1.54237e-07
1.32801e-05
-2.33555e-07
1.3254e-05
-2.10411e-07
1.32021e-05
-1.7357e-07
1.313e-05
-1.60384e-08
1.30862e-05
9.33366e-08
1.30694e-05
1.70373e-07
1.30499e-05
1.75444e-07
1.30232e-05
2.04392e-07
1.31326e-05
9.17239e-08
1.32685e-05
-6.79531e-07
1.33179e-05
-5.59454e-07
1.3347e-05
-5.10254e-07
-5.50831e-07
1.339e-05
1.43097e-05
-1.50407e-08
1.43058e-05
-1.45641e-08
1.43294e-05
-3.16627e-08
1.4315e-05
-6.74417e-08
1.43411e-05
-8.76912e-08
1.43278e-05
-1.43265e-07
1.43393e-05
-1.6578e-07
1.43071e-05
-2.01345e-07
1.4279e-05
-1.82323e-07
1.42039e-05
-9.84813e-08
1.41502e-05
3.77061e-08
1.41075e-05
1.35981e-07
1.40977e-05
1.80205e-07
1.407e-05
2.03086e-07
1.40264e-05
2.48026e-07
1.43172e-05
-1.99087e-07
1.43471e-05
-7.09368e-07
1.44004e-05
-6.12766e-07
1.4444e-05
-5.53913e-07
-6.07362e-07
1.45006e-05
1.54523e-05
-1.83249e-08
1.54485e-05
-1.08091e-08
1.54741e-05
-5.72794e-08
1.54565e-05
-4.97824e-08
1.54836e-05
-1.14786e-07
1.54615e-05
-1.21152e-07
1.54661e-05
-1.70381e-07
1.54194e-05
-1.54649e-07
1.5376e-05
-1.38989e-07
1.52971e-05
-1.95772e-08
1.52528e-05
8.20414e-08
1.52129e-05
1.75908e-07
1.5196e-05
1.97055e-07
1.51636e-05
2.3549e-07
1.51778e-05
2.33803e-07
1.55518e-05
-5.73015e-07
1.55292e-05
-6.86813e-07
1.55654e-05
-6.49002e-07
1.56161e-05
-6.04599e-07
-6.71881e-07
1.56807e-05
1.66818e-05
-1.77143e-08
1.66927e-05
-2.16178e-08
1.66963e-05
-6.09507e-08
1.66994e-05
-5.28442e-08
1.67021e-05
-1.17508e-07
1.66925e-05
-1.11541e-07
1.66693e-05
-1.47204e-07
1.66249e-05
-1.10177e-07
1.65576e-05
-7.16917e-08
1.64908e-05
4.71628e-08
1.64406e-05
1.32299e-07
1.64087e-05
2.07741e-07
1.63757e-05
2.30069e-07
1.63338e-05
2.7741e-07
1.65479e-05
1.96984e-08
1.67619e-05
-7.86982e-07
1.67917e-05
-7.1669e-07
1.68256e-05
-6.82855e-07
1.68765e-05
-6.5549e-07
-7.41355e-07
1.6946e-05
1.80108e-05
-1.41028e-08
1.80305e-05
-4.13761e-08
1.8018e-05
-4.84033e-08
1.80382e-05
-7.30257e-08
1.80186e-05
-9.79221e-08
1.80169e-05
-1.09883e-07
1.79691e-05
-9.9401e-08
1.79259e-05
-6.69598e-08
1.78424e-05
1.17835e-08
1.77863e-05
1.03303e-07
1.77264e-05
1.92155e-07
1.76952e-05
2.3895e-07
1.76533e-05
2.71976e-07
1.76434e-05
2.87342e-07
1.80776e-05
-4.14471e-07
1.80885e-05
-7.97895e-07
1.81322e-05
-7.60362e-07
1.81791e-05
-7.29781e-07
1.8235e-05
-7.1145e-07
-8.15417e-07
1.83091e-05
1.94509e-05
-1.23557e-08
1.94617e-05
-5.21259e-08
1.94585e-05
-4.51781e-08
1.94698e-05
-8.44066e-08
1.94515e-05
-7.95906e-08
1.94334e-05
-9.17594e-08
1.93829e-05
-4.88858e-08
1.93248e-05
-8.84177e-09
1.92472e-05
8.93334e-08
1.91844e-05
1.66083e-07
1.91254e-05
2.51135e-07
1.90776e-05
2.8679e-07
1.90272e-05
3.22409e-07
1.92203e-05
9.42568e-08
1.95418e-05
-7.3598e-07
1.9546e-05
-8.02167e-07
1.95816e-05
-7.95953e-07
1.96358e-05
-7.83906e-07
1.96997e-05
-7.7536e-07
-8.9514e-07
1.97794e-05
2.1007e-05
-1.35705e-08
2.1005e-05
-5.01464e-08
2.1017e-05
-5.71044e-08
2.10091e-05
-7.65022e-08
2.09991e-05
-6.95947e-08
2.09574e-05
-5.01064e-08
2.0913e-05
-4.4853e-09
2.08382e-05
6.59912e-08
2.07743e-05
1.53191e-07
2.0699e-05
2.41448e-07
2.06421e-05
3.07988e-07
2.05786e-05
3.50294e-07
2.05711e-05
3.29929e-07
2.09877e-05
-3.22398e-07
2.10622e-05
-8.10428e-07
2.11001e-05
-8.40115e-07
2.11461e-05
-8.41956e-07
2.12065e-05
-8.44288e-07
2.12779e-05
-8.4675e-07
-9.81024e-07
2.13638e-05
2.26832e-05
-1.38074e-08
2.26807e-05
-4.77191e-08
2.26895e-05
-6.5836e-08
2.26759e-05
-6.29437e-08
2.26573e-05
-5.09518e-08
2.26101e-05
-2.94964e-09
2.25589e-05
4.67644e-08
2.24868e-05
1.38057e-07
2.2423e-05
2.16974e-07
2.23503e-05
3.14177e-07
2.22848e-05
3.73491e-07
2.2219e-05
4.16057e-07
2.23997e-05
1.49275e-07
2.27122e-05
-6.34979e-07
2.27317e-05
-8.29856e-07
2.2772e-05
-8.80413e-07
2.28307e-05
-9.00658e-07
2.29e-05
-9.13628e-07
2.29782e-05
-9.24904e-07
-1.0729e-06
2.307e-05
2.44914e-05
-1.12406e-08
2.44936e-05
-4.99181e-08
2.44894e-05
-6.16981e-08
2.4478e-05
-5.14664e-08
2.44429e-05
-1.58586e-08
2.44007e-05
3.91709e-08
2.43371e-05
1.10379e-07
2.42774e-05
1.97761e-07
2.42081e-05
2.86314e-07
2.41499e-05
3.72348e-07
2.40866e-05
4.36768e-07
2.40779e-05
4.2483e-07
2.43948e-05
-1.67657e-07
2.44939e-05
-7.34084e-07
2.45302e-05
-8.66188e-07
2.45803e-05
-9.30478e-07
2.46488e-05
-9.69125e-07
2.47268e-05
-9.91657e-07
2.48105e-05
-1.00859e-06
-1.17079e-06
2.49084e-05
2.64461e-05
-7.73311e-09
2.64473e-05
-5.11592e-08
2.64355e-05
-4.98886e-08
2.64195e-05
-3.54795e-08
2.63783e-05
2.53359e-08
2.63351e-05
8.24174e-08
2.62714e-05
1.74004e-07
2.62158e-05
2.53359e-07
2.61532e-05
3.48932e-07
2.61108e-05
4.1479e-07
2.60858e-05
4.61706e-07
2.6201e-05
3.09685e-07
2.64131e-05
-3.79742e-07
2.64302e-05
-7.51247e-07
2.64715e-05
-9.07475e-07
2.65377e-05
-9.96643e-07
2.66174e-05
-1.04886e-06
2.67048e-05
-1.07902e-06
2.67952e-05
-1.09902e-06
-1.27693e-06
2.69013e-05
2.85581e-05
-4.46752e-09
2.85554e-05
-4.85318e-08
2.85382e-05
-3.26657e-08
2.85146e-05
-1.18318e-08
2.84753e-05
6.46194e-08
2.84298e-05
1.27848e-07
2.83757e-05
2.28101e-07
2.83223e-05
3.06833e-07
2.82778e-05
3.93389e-07
2.82621e-05
4.30489e-07
2.83096e-05
4.1423e-07
2.84863e-05
1.32938e-07
2.85251e-05
-4.18493e-07
2.85214e-05
-7.47596e-07
2.85748e-05
-9.60879e-07
2.86614e-05
-1.08322e-06
2.87565e-05
-1.14398e-06
2.88561e-05
-1.17855e-06
2.89563e-05
-1.19921e-06
-1.39448e-06
2.90738e-05
3.08388e-05
-1.55444e-09
3.08328e-05
-4.25419e-08
3.08085e-05
-8.41956e-09
3.07817e-05
1.50359e-08
3.07448e-05
1.01484e-07
3.07055e-05
1.67177e-07
3.06625e-05
2.71107e-07
3.06226e-05
3.46681e-07
3.06015e-05
4.1452e-07
3.06249e-05
4.07088e-07
3.07312e-05
3.07878e-07
3.08564e-05
7.75826e-09
3.07918e-05
-3.5389e-07
3.07782e-05
-7.33959e-07
3.0855e-05
-1.03766e-06
3.09658e-05
-1.19403e-06
3.10807e-05
-1.25889e-06
3.11963e-05
-1.29422e-06
3.13098e-05
-1.31271e-06
-1.52709e-06
3.14425e-05
3.3303e-05
-4.05227e-10
3.32918e-05
-3.14084e-08
3.32631e-05
2.02725e-08
3.32357e-05
4.24731e-08
3.32042e-05
1.32971e-07
3.31777e-05
1.93712e-07
3.31514e-05
2.97388e-07
3.31375e-05
3.60579e-07
3.31455e-05
4.06556e-07
3.31992e-05
3.53312e-07
3.32977e-05
2.09366e-07
3.33246e-05
-1.90899e-08
3.32301e-05
-2.59384e-07
3.32186e-05
-7.22451e-07
3.33179e-05
-1.13695e-06
3.34513e-05
-1.32745e-06
3.35903e-05
-1.39789e-06
3.37294e-05
-1.43338e-06
3.38647e-05
-1.44801e-06
-1.68287e-06
3.40205e-05
3.59666e-05
-3.92093e-09
3.59463e-05
-1.11071e-08
3.59208e-05
4.58137e-08
3.589e-05
7.32815e-08
3.58721e-05
1.50898e-07
3.5859e-05
2.06823e-07
3.58628e-05
2.93542e-07
3.58814e-05
3.42028e-07
3.59252e-05
3.62707e-07
3.5983e-05
2.95509e-07
3.60126e-05
1.79756e-07
3.59535e-05
4.00422e-08
3.58632e-05
-1.69054e-07
3.58533e-05
-7.12628e-07
3.59588e-05
-1.24245e-06
3.61081e-05
-1.47671e-06
3.6276e-05
-1.56577e-06
3.64503e-05
-1.60775e-06
3.66271e-05
-1.62472e-06
-1.88027e-06
3.68245e-05
3.88441e-05
-1.35238e-08
3.88112e-05
2.17466e-08
3.87985e-05
5.8495e-08
3.87627e-05
1.09069e-07
3.87657e-05
1.47973e-07
3.87641e-05
2.08415e-07
3.88076e-05
2.50034e-07
3.88603e-05
2.89298e-07
3.89417e-05
2.81291e-07
3.89829e-05
2.54372e-07
3.89607e-05
2.01966e-07
3.88577e-05
1.43002e-07
3.8763e-05
-7.4389e-08
3.87103e-05
-6.59867e-07
3.87767e-05
-1.30892e-06
3.8927e-05
-1.62697e-06
3.91189e-05
-1.7577e-06
3.93265e-05
-1.8153e-06
3.95526e-05
-1.85082e-06
-2.13025e-06
3.98025e-05
4.19468e-05
-2.5319e-08
4.19047e-05
6.38944e-08
4.19067e-05
5.65207e-08
4.18773e-05
1.38445e-07
4.18977e-05
1.27575e-07
4.1912e-05
1.9409e-07
4.19847e-05
1.77286e-07
4.20696e-05
2.04436e-07
4.21769e-05
1.73985e-07
4.22311e-05
2.00219e-07
4.22345e-05
1.98573e-07
4.21957e-05
1.81783e-07
4.21444e-05
-2.31319e-08
4.19774e-05
-4.92842e-07
4.18448e-05
-1.17634e-06
4.19195e-05
-1.70168e-06
4.20995e-05
-1.93769e-06
4.23031e-05
-2.0189e-06
4.25162e-05
-2.06387e-06
-2.32748e-06
4.27134e-05
4.52904e-05
-3.25124e-08
4.52511e-05
1.03172e-07
4.52572e-05
5.04051e-08
4.52519e-05
1.43702e-07
4.52773e-05
1.02196e-07
4.53148e-05
1.56575e-07
4.53923e-05
9.98039e-08
4.5498e-05
9.87719e-08
4.56251e-05
4.69012e-08
4.57524e-05
7.28355e-08
4.58805e-05
7.04964e-08
4.60504e-05
1.18878e-08
4.62737e-05
-2.46403e-07
4.6353e-05
-5.72117e-07
4.60688e-05
-8.92201e-07
4.5613e-05
-1.24589e-06
4.5354e-05
-1.67866e-06
4.53115e-05
-1.97643e-06
4.54154e-05
-2.16778e-06
-2.54577e-06
4.56337e-05
4.88963e-05
-3.02532e-08
4.88739e-05
1.25653e-07
4.88766e-05
4.7631e-08
4.88983e-05
1.22001e-07
4.89222e-05
7.83846e-08
4.89771e-05
1.01643e-07
4.90445e-05
3.24136e-08
4.91501e-05
-6.88323e-09
4.92966e-05
-9.95779e-08
4.95362e-05
-1.66766e-07
4.98646e-05
-2.5786e-07
5.0226e-05
-3.4952e-07
5.05346e-05
-5.55017e-07
5.08338e-05
-8.71358e-07
5.11892e-05
-1.24761e-06
5.1497e-05
-1.55366e-06
5.1591e-05
-1.77262e-06
5.15464e-05
-1.93182e-06
5.14261e-05
-2.04754e-06
-2.42082e-06
5.13012e-05
5.27884e-05
-1.5951e-08
5.27951e-05
1.19006e-07
5.27967e-05
4.59384e-08
5.28349e-05
8.38431e-08
5.28605e-05
5.27835e-08
5.29204e-05
4.17528e-08
5.29766e-05
-2.37592e-08
5.30667e-05
-9.70327e-08
5.32052e-05
-2.38081e-07
5.34836e-05
-4.45144e-07
5.3944e-05
-7.18278e-07
5.45355e-05
-9.41e-07
5.50392e-05
-1.05875e-06
5.53634e-05
-1.19549e-06
5.55576e-05
-1.44188e-06
5.56805e-05
-1.6765e-06
5.57309e-05
-1.82301e-06
5.57175e-05
-1.9185e-06
5.56605e-05
-1.99048e-06
-2.38778e-06
5.56275e-05
5.69948e-05
7.7518e-09
5.70351e-05
7.87323e-08
5.70442e-05
3.6791e-08
5.70863e-05
4.17348e-08
5.71225e-05
1.66286e-08
5.71793e-05
-1.5015e-08
5.72325e-05
-7.6996e-08
5.73089e-05
-1.73452e-07
5.7417e-05
-3.46169e-07
5.75964e-05
-6.24525e-07
5.79002e-05
-1.02203e-06
5.84449e-05
-1.48571e-06
5.9243e-05
-1.85685e-06
5.99892e-05
-1.94172e-06
6.0332e-05
-1.78474e-06
6.03033e-05
-1.64779e-06
6.0214e-05
-1.73364e-06
6.01713e-05
-1.87584e-06
6.01422e-05
-1.96135e-06
-2.41382e-06
6.01682e-05
6.15438e-05
3.48488e-08
6.16179e-05
4.63837e-09
6.16328e-05
2.19296e-08
6.16822e-05
-7.66124e-09
6.17215e-05
-2.27019e-08
6.17821e-05
-7.55981e-08
6.1835e-05
-1.29936e-07
6.19113e-05
-2.4975e-07
6.20014e-05
-4.36206e-07
6.21017e-05
-7.24872e-07
6.21545e-05
-1.07484e-06
6.21394e-05
-1.47056e-06
6.21722e-05
-1.88963e-06
6.25506e-05
-2.32013e-06
6.34011e-05
-2.63531e-06
6.44618e-05
-2.7085e-06
6.52566e-05
-2.52837e-06
6.56477e-05
-2.26694e-06
6.57501e-05
-2.06381e-06
-2.48347e-06
6.58198e-05
6.64577e-05
6.39749e-08
6.65693e-05
-1.06937e-07
6.65667e-05
2.45271e-08
6.66447e-05
-8.57521e-08
6.6672e-05
-4.99494e-08
6.67606e-05
-1.64224e-07
6.68031e-05
-1.72442e-07
6.68845e-05
-3.31147e-07
6.69151e-05
-4.66776e-07
6.69444e-05
-7.54138e-07
6.69149e-05
-1.0454e-06
6.68861e-05
-1.44176e-06
6.67887e-05
-1.79217e-06
6.65987e-05
-2.13019e-06
6.63116e-05
-2.3482e-06
6.61293e-05
-2.52622e-06
6.6237e-05
-2.63604e-06
6.66804e-05
-2.7103e-06
6.73275e-05
-2.71089e-06
-3.0661e-06
6.79101e-05
7.17777e-05
8.14306e-08
7.18638e-05
-1.93037e-07
7.18926e-05
-4.27312e-09
7.19816e-05
-1.747e-07
7.20343e-05
-1.02714e-07
7.21303e-05
-2.60198e-07
7.21817e-05
-2.23843e-07
7.22369e-05
-3.86357e-07
7.22104e-05
-4.40254e-07
7.21423e-05
-6.86065e-07
7.20159e-05
-9.19009e-07
7.19467e-05
-1.37257e-06
7.19606e-05
-1.806e-06
7.2079e-05
-2.24867e-06
7.21815e-05
-2.45065e-06
7.22418e-05
-2.58653e-06
7.226e-05
-2.65429e-06
7.23566e-05
-2.80691e-06
7.26043e-05
-2.95852e-06
-3.68837e-06
7.32265e-05
7.75302e-05
7.75582e-05
7.76441e-05
7.77294e-05
7.78211e-05
7.78983e-05
7.79593e-05
7.79662e-05
7.78862e-05
7.76702e-05
7.73378e-05
7.70433e-05
7.70106e-05
7.72104e-05
7.75126e-05
7.78286e-05
7.80498e-05
7.80275e-05
7.76362e-05
7.65042e-05
3.85712e-06
1.01681e-07
3.76745e-06
8.96737e-08
3.67271e-06
9.47403e-08
3.57515e-06
9.75562e-08
3.47495e-06
1.00203e-07
3.37212e-06
1.02828e-07
3.2672e-06
1.04919e-07
3.16096e-06
1.06239e-07
3.05329e-06
1.07665e-07
2.94494e-06
1.08355e-07
2.83545e-06
1.09494e-07
2.72481e-06
1.10635e-07
2.61244e-06
1.1237e-07
2.49822e-06
1.14216e-07
2.38208e-06
1.16148e-07
2.26359e-06
1.18482e-07
2.14298e-06
1.20615e-07
2.02032e-06
1.22656e-07
1.89601e-06
1.2431e-07
1.76985e-06
1.26163e-07
1.64355e-06
1.26305e-07
1.51811e-06
1.25435e-07
1.39581e-06
1.22298e-07
1.2796e-06
1.16218e-07
1.17319e-06
1.06409e-07
1.08124e-06
9.19462e-08
1.00593e-06
7.53107e-08
9.49156e-07
5.67733e-08
9.08555e-07
4.06015e-08
8.79985e-07
2.85699e-08
8.59852e-07
2.01328e-08
8.44435e-07
1.5417e-08
8.32641e-07
1.17941e-08
8.22707e-07
9.93438e-09
8.13742e-07
8.96494e-09
8.0562e-07
8.12176e-09
7.97138e-07
8.48195e-09
7.87847e-07
9.2915e-09
7.77764e-07
1.00826e-08
7.67394e-07
1.03703e-08
7.56751e-07
1.06432e-08
7.45823e-07
1.09275e-08
7.34998e-07
1.0825e-08
7.2405e-07
1.09478e-08
7.12892e-07
1.1158e-08
7.01978e-07
1.09142e-08
6.91178e-07
1.08003e-08
6.80384e-07
1.07935e-08
6.70294e-07
1.00902e-08
6.60325e-07
9.96906e-09
6.50138e-07
1.01868e-08
6.40446e-07
9.69239e-09
6.31228e-07
9.21745e-09
6.22639e-07
8.58893e-09
6.14056e-07
8.58351e-09
6.05218e-07
8.83749e-09
5.97355e-07
7.86353e-09
5.89834e-07
7.52142e-09
5.82359e-07
7.4742e-09
5.75403e-07
6.95636e-09
5.68127e-07
7.27607e-09
5.61453e-07
6.67347e-09
5.55955e-07
5.49881e-09
5.49758e-07
6.19624e-09
5.434e-07
6.35805e-09
5.3831e-07
5.09054e-09
5.33686e-07
4.62345e-09
5.29033e-07
4.65346e-09
5.24295e-07
4.73773e-09
5.1965e-07
4.64509e-09
5.16158e-07
3.49243e-09
5.13132e-07
3.02527e-09
5.09296e-07
3.83641e-09
5.05762e-07
3.53388e-09
5.03321e-07
2.4412e-09
5.00923e-07
2.39799e-09
4.9833e-07
2.59246e-09
4.96075e-07
2.25583e-09
4.94156e-07
1.91853e-09
4.92414e-07
1.74207e-09
4.90799e-07
1.6147e-09
4.89279e-07
1.51986e-09
4.87997e-07
1.2821e-09
4.86918e-07
1.07895e-09
4.8587e-07
1.04856e-09
4.84933e-07
9.37163e-10
4.8417e-07
7.6261e-10
4.83502e-07
6.67977e-10
4.82885e-07
6.16599e-10
4.82364e-07
5.21311e-10
4.81948e-07
4.16463e-10
4.81585e-07
3.62406e-10
4.81292e-07
2.93248e-10
4.81091e-07
2.01518e-10
4.80988e-07
1.02152e-10
4.81005e-07
-1.63998e-11
4.81349e-07
-3.44383e-10
4.81909e-07
-5.60032e-10
4.83736e-07
-1.82667e-09
-4.45186e-09
4.25685e-06
1.06563e-07
4.26484e-06
8.1688e-08
4.26502e-06
9.45558e-08
4.25927e-06
1.03309e-07
4.24855e-06
1.10926e-07
4.23316e-06
1.18214e-07
4.21453e-06
1.23547e-07
4.19343e-06
1.27348e-07
4.17055e-06
1.30538e-07
4.14599e-06
1.32916e-07
4.11953e-06
1.35959e-07
4.09029e-06
1.39867e-07
4.05776e-06
1.44901e-07
4.02163e-06
1.50347e-07
3.98133e-06
1.5645e-07
3.93683e-06
1.62983e-07
3.88753e-06
1.69911e-07
3.8341e-06
1.76089e-07
3.77562e-06
1.82793e-07
3.71266e-06
1.89118e-07
3.64506e-06
1.93911e-07
3.57369e-06
1.96802e-07
3.49917e-06
1.9682e-07
3.42212e-06
1.93265e-07
3.34546e-06
1.83069e-07
3.26971e-06
1.67699e-07
3.1983e-06
1.46716e-07
3.13154e-06
1.23535e-07
3.07074e-06
1.01403e-07
3.01634e-06
8.29698e-08
2.96548e-06
7.09958e-08
2.91808e-06
6.28099e-08
2.87239e-06
5.74926e-08
2.82797e-06
5.43544e-08
2.78447e-06
5.24569e-08
2.74255e-06
5.00488e-08
2.70138e-06
4.96482e-08
2.65966e-06
5.1012e-08
2.61889e-06
5.08533e-08
2.57804e-06
5.1216e-08
2.53773e-06
5.09585e-08
2.49829e-06
5.03663e-08
2.45912e-06
4.99909e-08
2.42055e-06
4.9518e-08
2.38236e-06
4.93513e-08
2.34551e-06
4.77633e-08
2.30867e-06
4.76415e-08
2.27235e-06
4.71086e-08
2.23835e-06
4.4095e-08
2.20417e-06
4.41512e-08
2.17036e-06
4.39967e-08
2.1381e-06
4.19481e-08
2.10656e-06
4.07631e-08
2.07687e-06
3.82707e-08
2.04768e-06
3.77773e-08
2.01801e-06
3.8507e-08
1.99066e-06
3.52114e-08
1.96519e-06
3.29906e-08
1.93944e-06
3.32331e-08
1.91405e-06
3.23417e-08
1.89024e-06
3.10848e-08
1.86818e-06
2.87331e-08
1.84676e-06
2.69177e-08
1.82506e-06
2.78968e-08
1.80447e-06
2.69538e-08
1.78612e-06
2.34322e-08
1.76871e-06
2.20337e-08
1.75118e-06
2.21841e-08
1.73429e-06
2.16366e-08
1.71913e-06
1.97967e-08
1.70548e-06
1.71447e-08
1.69205e-06
1.64553e-08
1.67879e-06
1.71027e-08
1.66698e-06
1.53351e-08
1.6565e-06
1.29261e-08
1.64643e-06
1.24631e-08
1.63689e-06
1.214e-08
1.62832e-06
1.08176e-08
1.62048e-06
9.76349e-09
1.6133e-06
8.92555e-09
1.60667e-06
8.24391e-09
1.60069e-06
7.49684e-09
1.59529e-06
6.68252e-09
1.59052e-06
5.85118e-09
1.58608e-06
5.48122e-09
1.5822e-06
4.81789e-09
1.57872e-06
4.24176e-09
1.57569e-06
3.70553e-09
1.57294e-06
3.36226e-09
1.57055e-06
2.91154e-09
1.56854e-06
2.42371e-09
1.56667e-06
2.23783e-09
1.56532e-06
1.64064e-09
1.56381e-06
1.70942e-09
1.56321e-06
7.05781e-10
1.56201e-06
1.18536e-09
1.56243e-06
-7.67226e-10
1.56201e-06
-1.37803e-10
1.5642e-06
-4.0145e-09
-9.70185e-09
4.59306e-06
9.97086e-08
4.60508e-06
6.96683e-08
4.61309e-06
8.65406e-08
4.61607e-06
1.00328e-07
4.61555e-06
1.11442e-07
4.61223e-06
1.21533e-07
4.60787e-06
1.27913e-07
4.60337e-06
1.31842e-07
4.59963e-06
1.34281e-07
4.5967e-06
1.35847e-07
4.59412e-06
1.38541e-07
4.59137e-06
1.42618e-07
4.58748e-06
1.48792e-07
4.5827e-06
1.55124e-07
4.57598e-06
1.63173e-07
4.56777e-06
1.71192e-07
4.55742e-06
1.80256e-07
4.54539e-06
1.88117e-07
4.53131e-06
1.96876e-07
4.51501e-06
2.05422e-07
4.49694e-06
2.1198e-07
4.47643e-06
2.17308e-07
4.45441e-06
2.18844e-07
4.42978e-06
2.17891e-07
4.40386e-06
2.08987e-07
4.37612e-06
1.95441e-07
4.3471e-06
1.75734e-07
4.31807e-06
1.5257e-07
4.28863e-06
1.3084e-07
4.26127e-06
1.10324e-07
4.23436e-06
9.79122e-08
4.20781e-06
8.93571e-08
4.18168e-06
8.36204e-08
4.15474e-06
8.12921e-08
4.12784e-06
7.93577e-08
4.10081e-06
7.70801e-08
4.0736e-06
7.68644e-08
4.04515e-06
7.94549e-08
4.01617e-06
7.98332e-08
3.98658e-06
8.08146e-08
3.9561e-06
8.14339e-08
3.92546e-06
8.10093e-08
3.89424e-06
8.12089e-08
3.86273e-06
8.10295e-08
3.83042e-06
8.16555e-08
3.79828e-06
7.99021e-08
3.76537e-06
8.05543e-08
3.73151e-06
8.09689e-08
3.699e-06
7.6606e-08
3.66545e-06
7.76971e-08
3.63126e-06
7.81935e-08
3.59766e-06
7.55436e-08
3.56366e-06
7.47686e-08
3.53072e-06
7.12025e-08
3.49722e-06
7.12778e-08
3.46291e-06
7.28209e-08
3.43008e-06
6.80459e-08
3.39767e-06
6.53947e-08
3.36536e-06
6.55442e-08
3.3328e-06
6.49009e-08
3.30024e-06
6.3646e-08
3.26978e-06
5.91981e-08
3.23975e-06
5.69467e-08
3.2087e-06
5.89381e-08
3.17862e-06
5.70353e-08
3.15031e-06
5.1746e-08
3.12303e-06
4.9317e-08
3.09581e-06
4.94005e-08
3.06846e-06
4.89868e-08
3.0431e-06
4.51597e-08
3.01982e-06
4.04249e-08
2.9964e-06
3.98705e-08
2.97311e-06
4.03912e-08
2.95194e-06
3.65043e-08
2.93225e-06
3.2618e-08
2.9131e-06
3.16144e-08
2.89479e-06
3.04451e-08
2.87795e-06
2.7667e-08
2.86215e-06
2.55551e-08
2.84738e-06
2.36945e-08
2.8335e-06
2.21274e-08
2.82078e-06
2.02204e-08
2.80901e-06
1.84475e-08
2.79822e-06
1.66412e-08
2.78821e-06
1.54935e-08
2.77914e-06
1.38873e-08
2.77091e-06
1.24681e-08
2.76338e-06
1.12398e-08
2.75669e-06
1.00564e-08
2.75046e-06
9.13715e-09
2.74524e-06
7.64479e-09
2.74009e-06
7.38684e-09
2.73622e-06
5.50639e-09
2.73199e-06
5.94879e-09
2.7294e-06
3.28698e-09
2.72609e-06
4.5025e-09
2.72477e-06
5.46022e-10
2.72302e-06
1.61913e-09
2.72326e-06
-4.25679e-09
-1.31138e-08
4.95902e-06
7.01745e-08
4.97078e-06
5.79041e-08
4.98032e-06
7.70046e-08
4.98449e-06
9.61579e-08
4.98436e-06
1.11572e-07
4.98152e-06
1.24369e-07
4.97773e-06
1.31708e-07
4.97452e-06
1.35049e-07
4.97258e-06
1.3622e-07
4.97238e-06
1.36048e-07
4.97305e-06
1.37871e-07
4.97448e-06
1.41185e-07
4.9756e-06
1.4768e-07
4.97668e-06
1.54044e-07
4.97699e-06
1.62862e-07
4.9767e-06
1.71477e-07
4.97604e-06
1.8092e-07
4.97475e-06
1.89409e-07
4.97349e-06
1.9813e-07
4.97158e-06
2.07329e-07
4.96997e-06
2.13591e-07
4.9678e-06
2.19481e-07
4.96561e-06
2.21036e-07
4.96277e-06
2.20733e-07
4.95881e-06
2.12948e-07
4.95375e-06
2.00501e-07
4.94632e-06
1.83158e-07
4.93791e-06
1.60981e-07
4.92776e-06
1.40995e-07
4.9177e-06
1.20382e-07
4.90781e-06
1.07802e-07
4.89728e-06
9.98847e-08
4.88718e-06
9.3724e-08
4.87622e-06
9.22552e-08
4.86528e-06
9.02958e-08
4.85426e-06
8.80992e-08
4.84305e-06
8.80727e-08
4.83143e-06
9.10727e-08
4.81916e-06
9.21069e-08
4.80661e-06
9.33603e-08
4.79313e-06
9.49203e-08
4.77914e-06
9.49967e-08
4.76462e-06
9.57282e-08
4.74968e-06
9.597e-08
4.73419e-06
9.71409e-08
4.71848e-06
9.56128e-08
4.70219e-06
9.68437e-08
4.68474e-06
9.84254e-08
4.66763e-06
9.37167e-08
4.64957e-06
9.57514e-08
4.63042e-06
9.73489e-08
4.61144e-06
9.45237e-08
4.59165e-06
9.45531e-08
4.5721e-06
9.07572e-08
4.55184e-06
9.15387e-08
4.53028e-06
9.43754e-08
4.50932e-06
8.90051e-08
4.48797e-06
8.67448e-08
4.46615e-06
8.73708e-08
4.44406e-06
8.69906e-08
4.42097e-06
8.67314e-08
4.39879e-06
8.13775e-08
4.37681e-06
7.89335e-08
4.35323e-06
8.25101e-08
4.32977e-06
8.04979e-08
4.30713e-06
7.43867e-08
4.28454e-06
7.19115e-08
4.26183e-06
7.21105e-08
4.23851e-06
7.23065e-08
4.21587e-06
6.77943e-08
4.19459e-06
6.17033e-08
4.17287e-06
6.15936e-08
4.1506e-06
6.26589e-08
4.12968e-06
5.74284e-08
4.10968e-06
5.26178e-08
4.08972e-06
5.15712e-08
4.0702e-06
4.99668e-08
4.05159e-06
4.62725e-08
4.03369e-06
4.34572e-08
4.01644e-06
4.0945e-08
3.99984e-06
3.87302e-08
3.98402e-06
3.60434e-08
3.96908e-06
3.3381e-08
3.95484e-06
3.08807e-08
3.94143e-06
2.89104e-08
3.9287e-06
2.66115e-08
3.91697e-06
2.41997e-08
3.90574e-06
2.24699e-08
3.89561e-06
2.01906e-08
3.88582e-06
1.8928e-08
3.87729e-06
1.61698e-08
3.86882e-06
1.58603e-08
3.86182e-06
1.2505e-08
3.85463e-06
1.31333e-08
3.84905e-06
8.86643e-09
3.84329e-06
1.02659e-08
3.83907e-06
4.76957e-09
3.83536e-06
5.32929e-09
3.83269e-06
-1.59226e-09
-1.33662e-08
5.35693e-06
2.02809e-08
5.36812e-06
4.67213e-08
5.3782e-06
6.69223e-08
5.38285e-06
9.15123e-08
5.38239e-06
1.12031e-07
5.37912e-06
1.27638e-07
5.37488e-06
1.35945e-07
5.37147e-06
1.38463e-07
5.36954e-06
1.38151e-07
5.36956e-06
1.36029e-07
5.3706e-06
1.36831e-07
5.3725e-06
1.39277e-07
5.3744e-06
1.45781e-07
5.37623e-06
1.5222e-07
5.37755e-06
1.61535e-07
5.37833e-06
1.707e-07
5.37912e-06
1.80128e-07
5.3795e-06
1.89036e-07
5.38036e-06
1.97267e-07
5.3812e-06
2.06489e-07
5.38279e-06
2.11998e-07
5.38456e-06
2.1771e-07