/*--------------------------------*- C++ -*----------------------------------*\
  =========                 |
  \\      /  F ield         | OpenFOAM: The Open Source CFD Toolbox
   \\    /   O peration     | Website:  https://openfoam.org
    \\  /    A nd           | Version:  6
     \\/     M anipulation  |
\*---------------------------------------------------------------------------*/
FoamFile
{
    version     2.0;
    format      ascii;
    class       volVectorField;
    location    "0.8";
    object      U;
}
// * * * * * * * * * * * * * * * * * * * * * * * * * * * * * * * * * * * * * //

dimensions      [0 1 -1 0 0 0 0];

internalField   nonuniform List<vector> 
4800
(
(0.95918 -0.000188957 0)
(1.04062 0.000190692 0)
(0.96397 -9.32924e-05 0)
(1.03824 0.000232736 0)
(0.970017 -0.000126112 0)
(1.03742 -2.23829e-05 0)
(0.976508 -7.13042e-05 0)
(1.03787 0.000172538 0)
(0.984998 -3.723e-05 0)
(1.04001 6.07243e-05 0)
(0.993816 -5.20014e-05 0)
(1.04178 -6.05783e-05 0)
(1.00084 -2.74843e-05 0)
(1.04217 -7.58078e-05 0)
(1.00624 4.16973e-06 0)
(1.04161 -3.40349e-05 0)
(1.01022 2.42123e-05 0)
(1.04111 8.19652e-06 0)
(1.01301 7.94193e-05 0)
(1.03952 0.000104669 0)
(0.982246 -0.00027348 0)
(1.01554 0.000468298 0)
(0.987659 -0.000193216 0)
(1.01353 0.000561746 0)
(0.993536 -0.000312785 0)
(1.01363 0.000242779 0)
(0.999392 -0.000364743 0)
(1.01474 0.000380714 0)
(1.00709 -0.000321748 0)
(1.01867 0.00022662 0)
(1.01442 -0.000348261 0)
(1.02243 -4.4956e-05 0)
(1.01972 -0.000345331 0)
(1.0248 -0.000103529 0)
(1.02329 -0.000221082 0)
(1.02602 1.90012e-05 0)
(1.02568 -5.87277e-05 0)
(1.02699 0.000205184 0)
(1.02689 0.000221836 0)
(1.02701 0.000540563 0)
(0.995919 -0.000372422 0)
(1.00294 0.000749346 0)
(0.998403 -0.000328497 0)
(1.00338 0.000921998 0)
(1.00149 -0.000499236 0)
(1.00569 0.000465161 0)
(1.00523 -0.000696693 0)
(1.0085 0.000576679 0)
(1.01092 -0.000658318 0)
(1.01434 0.0004139 0)
(1.01664 -0.0007408 0)
(1.01952 -6.00278e-05 0)
(1.02086 -0.000810839 0)
(1.02281 -0.000164878 0)
(1.02367 -0.000565636 0)
(1.02465 7.43622e-05 0)
(1.02551 -0.000221472 0)
(1.02599 0.00049637 0)
(1.02656 0.000383799 0)
(1.02627 0.00117517 0)
(0.999492 -0.000267033 0)
(1.00033 0.000489451 0)
(1.00054 -0.000278463 0)
(1.00173 0.000665702 0)
(1.00273 -0.000369995 0)
(1.00446 3.39238e-05 0)
(1.00599 -0.000665621 0)
(1.008 0.000203178 0)
(1.011 -0.000659211 0)
(1.0138 2.98479e-05 0)
(1.01654 -0.000861538 0)
(1.01903 -0.000554035 0)
(1.02084 -0.000997443 0)
(1.02252 -0.000596376 0)
(1.02367 -0.000632612 0)
(1.02453 -0.000138024 0)
(1.02546 -0.000138308 0)
(1.02596 0.000634858 0)
(1.02649 0.000832386 0)
(1.02635 0.00178795 0)
(1.00004 -7.39754e-05 0)
(1.00007 4.5257e-05 0)
(1.00077 -0.000187738 0)
(1.00157 7.10588e-05 0)
(1.00292 -0.000188088 0)
(1.00423 -0.000749841 0)
(1.00613 -0.000571643 0)
(1.00828 -0.000540881 0)
(1.011 -0.000655303 0)
(1.01363 -0.000771044 0)
(1.01643 -0.00101527 0)
(1.01875 -0.00130058 0)
(1.02084 -0.00115035 0)
(1.0225 -0.00118103 0)
(1.02378 -0.000654775 0)
(1.0247 -0.000497426 0)
(1.02564 -1.60606e-05 0)
(1.02625 0.000665489 0)
(1.02673 0.00128874 0)
(1.02667 0.00202465 0)
(1.0001 -8.51454e-05 0)
(1.00006 0.00010514 0)
(1.00079 -0.000131347 0)
(1.00153 -0.000159321 0)
(1.00293 -0.000116855 0)
(1.00415 -0.00123394 0)
(1.00617 -0.000576888 0)
(1.00848 -0.00108652 0)
(1.01106 -0.000883064 0)
(1.01353 -0.00151679 0)
(1.01635 -0.00138681 0)
(1.0186 -0.00191685 0)
(1.02079 -0.00142882 0)
(1.02252 -0.00158146 0)
(1.02385 -0.000798583 0)
(1.02485 -0.000745401 0)
(1.02585 3.6683e-06 0)
(1.02655 0.000749361 0)
(1.02699 0.0015072 0)
(1.02691 0.00184466 0)
(1.0001 -0.000257066 0)
(1.00008 0.000484886 0)
(1.00076 0.0001073 0)
(1.00152 2.57628e-05 0)
(1.00288 6.80461e-05 0)
(1.00412 -0.00124286 0)
(1.00615 -0.000423107 0)
(1.00854 -0.0012695 0)
(1.01107 -0.00111333 0)
(1.01349 -0.0019499 0)
(1.0163 -0.00172146 0)
(1.01855 -0.0022289 0)
(1.02077 -0.00158979 0)
(1.02257 -0.00172559 0)
(1.0239 -0.000892204 0)
(1.02496 -0.000782114 0)
(1.02607 0.000144073 0)
(1.0268 0.00094715 0)
(1.02718 0.00169148 0)
(1.02699 0.00179752 0)
(1.00009 -0.000414932 0)
(1.00009 0.000499511 0)
(1.00073 0.000418519 0)
(1.0015 0.000223693 0)
(1.0028 0.000246553 0)
(1.00408 -0.00102572 0)
(1.00612 -0.000298014 0)
(1.00849 -0.00121914 0)
(1.01103 -0.00135314 0)
(1.01343 -0.00206974 0)
(1.01626 -0.00204408 0)
(1.01855 -0.00220531 0)
(1.02078 -0.00178182 0)
(1.02261 -0.00169311 0)
(1.02397 -0.001091 0)
(1.02509 -0.000693802 0)
(1.02629 0.000290206 0)
(1.02701 0.00111211 0)
(1.02729 0.00191579 0)
(1.02694 0.00205756 0)
(1.00008 -0.000240006 0)
(1.00014 -0.000504931 0)
(1.00071 0.00075482 0)
(1.0015 -0.00033452 0)
(1.00273 0.000390216 0)
(1.00406 -0.00143553 0)
(1.00609 -0.00021153 0)
(1.00843 -0.00173278 0)
(1.01095 -0.00154018 0)
(1.01338 -0.00262498 0)
(1.01624 -0.00222743 0)
(1.01857 -0.00260162 0)
(1.0208 -0.00201618 0)
(1.02268 -0.00211264 0)
(1.02408 -0.00140636 0)
(1.02532 -0.00117147 0)
(1.02655 6.39566e-05 0)
(1.02729 0.000542855 0)
(1.02749 0.00191782 0)
(1.027 0.00212366 0)
(1.00004 0.000182223 0)
(1.00027 -0.00189018 0)
(1.00073 0.000880546 0)
(1.00156 -0.00134596 0)
(1.00267 0.000308457 0)
(1.00411 -0.00231044 0)
(1.00605 -0.000368775 0)
(1.00841 -0.00281347 0)
(1.01088 -0.00181141 0)
(1.0134 -0.00356774 0)
(1.01625 -0.00240437 0)
(1.01865 -0.00354751 0)
(1.02086 -0.00231465 0)
(1.02282 -0.00300018 0)
(1.02425 -0.00188452 0)
(1.02561 -0.00230358 0)
(1.02685 -0.00086002 0)
(1.02771 -0.0008128 0)
(1.02789 0.00125673 0)
(1.02716 0.00185965 0)
(1.00003 0.000555715 0)
(1.00039 -0.00198651 0)
(1.00083 0.000586243 0)
(1.00162 -0.00141221 0)
(1.00268 -0.000225104 0)
(1.00414 -0.00235249 0)
(1.00607 -0.00101585 0)
(1.00838 -0.00321941 0)
(1.01089 -0.00230741 0)
(1.01343 -0.00392482 0)
(1.0163 -0.00281668 0)
(1.01873 -0.00408941 0)
(1.021 -0.0026853 0)
(1.02298 -0.00361201 0)
(1.02443 -0.00264977 0)
(1.02584 -0.00333395 0)
(1.02717 -0.00228583 0)
(1.02822 -0.00229869 0)
(1.02859 -0.000174622 0)
(1.02761 0.0010143 0)
(0.999944 -0.000355057 0)
(1.00049 0.000900578 0)
(1.00081 -0.000918201 0)
(1.00166 0.000904282 0)
(1.0026 -0.00183202 0)
(1.00417 -0.000235164 0)
(1.00597 -0.00263054 0)
(1.00836 -0.0017047 0)
(1.01081 -0.00363398 0)
(1.01343 -0.002736 0)
(1.01627 -0.00394289 0)
(1.01881 -0.00320414 0)
(1.02108 -0.00371171 0)
(1.02304 -0.00330535 0)
(1.02448 -0.00407893 0)
(1.02594 -0.00353861 0)
(1.02734 -0.0042404 0)
(1.02869 -0.00323625 0)
(1.02937 -0.00235085 0)
(1.02847 -0.000435483 0)
(0.999711 -0.00123507 0)
(1.00058 0.00345718 0)
(1.00052 -0.00205205 0)
(1.00171 0.00272082 0)
(1.00228 -0.00291445 0)
(1.00418 0.0014465 0)
(1.00563 -0.00377316 0)
(1.00833 -0.000478586 0)
(1.01052 -0.0046729 0)
(1.01343 -0.00176604 0)
(1.01606 -0.00490477 0)
(1.01886 -0.00249874 0)
(1.0209 -0.00488682 0)
(1.02301 -0.00333881 0)
(1.02432 -0.00556898 0)
(1.02592 -0.00395435 0)
(1.02727 -0.00594305 0)
(1.02908 -0.00422889 0)
(1.02986 -0.00407904 0)
(1.02974 -0.00135124 0)
(0.999605 -0.000431144 0)
(1.00049 0.00216666 0)
(1.00026 -0.0012448 0)
(1.0016 0.00116663 0)
(1.00202 -0.0020945 0)
(1.00405 0.000118058 0)
(1.00531 -0.00324703 0)
(1.0082 -0.00162507 0)
(1.01026 -0.00436591 0)
(1.01336 -0.00280978 0)
(1.01585 -0.00491224 0)
(1.01882 -0.00359555 0)
(1.02066 -0.0054445 0)
(1.02288 -0.00476953 0)
(1.02414 -0.00644319 0)
(1.02583 -0.00551511 0)
(1.02716 -0.00672603 0)
(1.02953 -0.00537075 0)
(1.03081 -0.00428577 0)
(1.03172 -0.000460177 0)
(0.999744 7.01055e-05 0)
(1.00026 -6.74425e-05 0)
(1.00028 -0.000395657 0)
(1.00138 -0.000938604 0)
(1.00202 -0.00106593 0)
(1.0038 -0.00171415 0)
(1.00523 -0.00242826 0)
(1.00796 -0.00306415 0)
(1.01018 -0.0038155 0)
(1.01318 -0.00413649 0)
(1.0158 -0.0046742 0)
(1.01865 -0.00499497 0)
(1.02054 -0.00583181 0)
(1.02265 -0.00637431 0)
(1.02408 -0.00707602 0)
(1.02577 -0.0071377 0)
(1.02739 -0.00691669 0)
(1.03024 -0.00525368 0)
(1.03247 -0.00287147 0)
(1.034 0.00139253 0)
(0.999943 0.000112892 0)
(1.0001 -0.00138856 0)
(1.00044 0.000155245 0)
(1.00121 -0.00187581 0)
(1.00215 -0.000241511 0)
(1.00356 -0.00253482 0)
(1.00527 -0.00167294 0)
(1.00771 -0.00368855 0)
(1.0102 -0.00326911 0)
(1.01299 -0.00474084 0)
(1.0158 -0.00439003 0)
(1.01838 -0.00599949 0)
(1.02043 -0.00614016 0)
(1.02238 -0.00762881 0)
(1.02406 -0.00752666 0)
(1.02586 -0.00824645 0)
(1.02824 -0.00680979 0)
(1.03157 -0.00437035 0)
(1.03457 -0.000957996 0)
(1.03637 0.00300367 0)
(1.00007 0.000147497 0)
(1.00009 -0.00158446 0)
(1.00061 0.000449349 0)
(1.00116 -0.00172539 0)
(1.00225 0.000104115 0)
(1.00339 -0.00250964 0)
(1.00528 -0.00136135 0)
(1.00749 -0.003704 0)
(1.01018 -0.00309074 0)
(1.0128 -0.00496441 0)
(1.01569 -0.00463056 0)
(1.01806 -0.00678078 0)
(1.02023 -0.00674523 0)
(1.02213 -0.00855016 0)
(1.02407 -0.00815574 0)
(1.02613 -0.00880009 0)
(1.02953 -0.00683358 0)
(1.03345 -0.00367095 0)
(1.0369 0.000142055 0)
(1.03879 0.00378971 0)
(1.00009 -0.000120632 0)
(1.00017 -0.000513817 0)
(1.00068 1.8816e-05 0)
(1.00118 -0.000701562 0)
(1.00221 -0.000479685 0)
(1.00327 -0.00186629 0)
(1.00518 -0.00189156 0)
(1.00731 -0.00328167 0)
(1.01002 -0.00356643 0)
(1.01257 -0.00491732 0)
(1.0154 -0.00543046 0)
(1.01773 -0.00710108 0)
(1.01994 -0.00764109 0)
(1.0219 -0.0089248 0)
(1.02412 -0.00894334 0)
(1.02663 -0.00865451 0)
(1.03108 -0.00629938 0)
(1.03564 -0.00266135 0)
(1.03931 0.00107448 0)
(1.0411 0.00439916 0)
(1.00003 -0.000495468 0)
(1.00023 0.000802218 0)
(1.00059 -0.000849382 0)
(1.00117 0.000340841 0)
(1.002 -0.00161552 0)
(1.00315 -0.00110932 0)
(1.00493 -0.00286652 0)
(1.00713 -0.00263757 0)
(1.00972 -0.00433636 0)
(1.0123 -0.0044869 0)
(1.01498 -0.00627861 0)
(1.01737 -0.00685631 0)
(1.01955 -0.00850193 0)
(1.02169 -0.00868188 0)
(1.02427 -0.00949273 0)
(1.02767 -0.00779076 0)
(1.03297 -0.00477368 0)
(1.03798 -0.00110818 0)
(1.04164 0.00227239 0)
(1.04316 0.00501911 0)
(0.999987 -0.000457918 0)
(1.00017 0.000780801 0)
(1.00046 -0.0012134 0)
(1.00107 0.00016205 0)
(1.00177 -0.00218565 0)
(1.00301 -0.00109048 0)
(1.00467 -0.00317228 0)
(1.00694 -0.00239919 0)
(1.00938 -0.00455998 0)
(1.01199 -0.00429056 0)
(1.0145 -0.00654219 0)
(1.01694 -0.00665383 0)
(1.01915 -0.00867914 0)
(1.02155 -0.00827917 0)
(1.02464 -0.00907979 0)
(1.02937 -0.00646242 0)
(1.03518 -0.00301108 0)
(1.04028 0.000316549 0)
(1.04371 0.00310302 0)
(1.04485 0.00512258 0)
(1.00003 2.75911e-05 0)
(1.00005 -0.000616334 0)
(1.00044 -0.000688094 0)
(1.00092 -0.00122248 0)
(1.0017 -0.00158728 0)
(1.00287 -0.00195881 0)
(1.00456 -0.00228209 0)
(1.0067 -0.00290693 0)
(1.00911 -0.00381345 0)
(1.01161 -0.00484217 0)
(1.01411 -0.00590018 0)
(1.0165 -0.0069398 0)
(1.01889 -0.00777775 0)
(1.02157 -0.0080275 0)
(1.02544 -0.00729167 0)
(1.03132 -0.00435057 0)
(1.03741 -0.00100373 0)
(1.04231 0.00170803 0)
(1.04535 0.00376933 0)
(1.04606 0.00505594 0)
(1.0001 0.000178379 0)
(1.00002 -0.00136234 0)
(1.00053 -0.000308096 0)
(1.00085 -0.0018996 0)
(1.00178 -0.000890718 0)
(1.00282 -0.00225566 0)
(1.00455 -0.00139177 0)
(1.00644 -0.00315084 0)
(1.00886 -0.00308419 0)
(1.01121 -0.00513648 0)
(1.01381 -0.0051634 0)
(1.01614 -0.00684213 0)
(1.01883 -0.00651746 0)
(1.02193 -0.00705177 0)
(1.02704 -0.00476605 0)
(1.03344 -0.00172837 0)
(1.03944 0.00114393 0)
(1.04391 0.00307594 0)
(1.04649 0.00438129 0)
(1.04679 0.00501624 0)
(1.00014 -0.000204656 0)
(1.00006 -0.000655016 0)
(1.00059 -0.000737155 0)
(1.00086 -0.00112421 0)
(1.00184 -0.00100878 0)
(1.00281 -0.00131797 0)
(1.00446 -0.00154402 0)
(1.00617 -0.00250357 0)
(1.00854 -0.00330072 0)
(1.01084 -0.00444959 0)
(1.01353 -0.0050801 0)
(1.01597 -0.00566744 0)
(1.019 -0.00553814 0)
(1.0228 -0.00470202 0)
(1.02893 -0.00185461 0)
(1.03542 0.000860977 0)
(1.04102 0.00302835 0)
(1.04493 0.004199 0)
(1.04705 0.00479531 0)
(1.04699 0.00493981 0)
(1.00016 -0.000287827 0)
(1.00003 -0.000158123 0)
(1.0006 -0.00101531 0)
(1.00089 -0.000565522 0)
(1.00185 -0.00117665 0)
(1.00275 -0.000654024 0)
(1.00425 -0.00182037 0)
(1.00588 -0.00197341 0)
(1.00817 -0.00353211 0)
(1.01054 -0.00368273 0)
(1.01334 -0.00481354 0)
(1.01606 -0.00420785 0)
(1.01954 -0.00411389 0)
(1.02442 -0.00183851 0)
(1.03083 0.00106707 0)
(1.03701 0.00321083 0)
(1.04206 0.00454911 0)
(1.04536 0.00507738 0)
(1.0471 0.00509427 0)
(1.04679 0.0049253 0)
(1.00018 -7.67409e-05 0)
(0.999967 -0.000405056 0)
(1.00061 -0.00071605 0)
(1.0009 -0.000796699 0)
(1.00189 -0.000904384 0)
(1.00266 -0.000916309 0)
(1.00405 -0.00146673 0)
(1.00556 -0.00191375 0)
(1.00787 -0.00274935 0)
(1.01032 -0.0030976 0)
(1.01336 -0.0034889 0)
(1.01648 -0.00290328 0)
(1.0206 -0.00175325 0)
(1.02632 0.000809259 0)
(1.03258 0.00328041 0)
(1.0381 0.00477338 0)
(1.04253 0.00535432 0)
(1.04531 0.00541042 0)
(1.04677 0.00510729 0)
(1.04634 0.00481108 0)
(1.00018 -5.57083e-05 0)
(0.999963 -0.000496161 0)
(1.00061 -0.00044287 0)
(1.00092 -0.000821004 0)
(1.00192 -0.00064173 0)
(1.00261 -0.0011111 0)
(1.00394 -0.000968049 0)
(1.00539 -0.00146391 0)
(1.00771 -0.00137108 0)
(1.01023 -0.00185479 0)
(1.01357 -0.00150923 0)
(1.01722 -0.00118063 0)
(1.02212 0.000662972 0)
(1.02803 0.00273285 0)
(1.03388 0.00432714 0)
(1.03867 0.00511125 0)
(1.04253 0.00519417 0)
(1.04498 0.00502307 0)
(1.04632 0.00473247 0)
(1.04591 0.00451153 0)
(1.00014 -9.20327e-05 0)
(1 -0.000356613 0)
(1.0006 -0.00033491 0)
(1.00095 -0.000537921 0)
(1.00187 -0.000443835 0)
(1.00262 -0.000719035 0)
(1.00396 -0.000427573 0)
(1.00545 -0.000406091 0)
(1.00774 6.85257e-05 0)
(1.01033 7.82539e-05 0)
(1.01386 0.000586073 0)
(1.01802 0.00100798 0)
(1.02341 0.00243317 0)
(1.0291 0.00352986 0)
(1.03447 0.00410253 0)
(1.03877 0.00419271 0)
(1.0423 0.00403318 0)
(1.04468 0.00383247 0)
(1.04604 0.00375855 0)
(1.04573 0.00374029 0)
(1.0001 -6.03778e-05 0)
(1.00005 -0.000319543 0)
(1.00058 -0.000194119 0)
(1.001 -0.000350199 0)
(1.00187 -9.28225e-05 0)
(1.00271 -3.38046e-05 0)
(1.00412 0.000443322 0)
(1.00572 0.000906887 0)
(1.00801 0.00165189 0)
(1.01062 0.00214763 0)
(1.01419 0.00274647 0)
(1.01856 0.00316802 0)
(1.02393 0.00372748 0)
(1.02926 0.00366099 0)
(1.03428 0.00328494 0)
(1.03843 0.00267473 0)
(1.04196 0.00227734 0)
(1.04452 0.00199259 0)
(1.04607 0.00207049 0)
(1.04595 0.00222718 0)
(1.00006 -2.50945e-05 0)
(1.00012 -0.000436336 0)
(1.00061 -3.88543e-05 0)
(1.0011 -0.000190082 0)
(1.00202 0.000395048 0)
(1.00296 0.00063942 0)
(1.00447 0.00155532 0)
(1.00619 0.00225644 0)
(1.0085 0.00341121 0)
(1.01107 0.00414163 0)
(1.01453 0.00498038 0)
(1.01867 0.00515924 0)
(1.0236 0.00500921 0)
(1.02846 0.00388655 0)
(1.03324 0.00267245 0)
(1.03748 0.00126189 0)
(1.04131 0.000381263 0)
(1.04429 -0.000285613 0)
(1.04627 -0.000357008 0)
(1.04651 -0.000259361 0)
(1.00007 1.79275e-05 0)
(1.00019 -0.000601751 0)
(1.00078 -2.56017e-05 0)
(1.00128 -2.7766e-05 0)
(1.00235 0.00089776 0)
(1.00336 0.00126805 0)
(1.00509 0.00259867 0)
(1.00685 0.00347639 0)
(1.00928 0.00502174 0)
(1.01169 0.00593918 0)
(1.01494 0.00704602 0)
(1.01841 0.00706166 0)
(1.0226 0.00659568 0)
(1.02671 0.00487068 0)
(1.03124 0.00300708 0)
(1.03551 0.000784155 0)
(1.03981 -0.000857946 0)
(1.04333 -0.0023046 0)
(1.04599 -0.0030079 0)
(1.04681 -0.00347296 0)
(1.00027 3.77349e-05 0)
(1.00009 -0.000539291 0)
(1.00122 -0.00015813 0)
(1.00148 0.000123655 0)
(1.00297 0.00114226 0)
(1.0038 0.00189336 0)
(1.00604 0.0032546 0)
(1.00765 0.00447849 0)
(1.01045 0.0060446 0)
(1.01249 0.00734279 0)
(1.01559 0.00853763 0)
(1.01804 0.00894817 0)
(1.02143 0.00856793 0)
(1.02429 0.00709714 0)
(1.02832 0.00491106 0)
(1.03215 0.00218078 0)
(1.03677 -0.000462553 0)
(1.0406 -0.00294402 0)
(1.04402 -0.00489537 0)
(1.04544 -0.00646807 0)
(1.00073 -0.00013779 0)
(0.999697 1.59361e-05 0)
(1.00183 -0.000268641 0)
(1.00155 0.000578051 0)
(1.00393 0.000936439 0)
(1.00427 0.00243691 0)
(1.00728 0.00329432 0)
(1.00853 0.00515878 0)
(1.0119 0.00628635 0)
(1.0135 0.00824885 0)
(1.01669 0.00938001 0)
(1.01812 0.0108103 0)
(1.02075 0.0108899 0)
(1.02196 0.010539 0)
(1.02482 0.00854085 0)
(1.02736 0.00597361 0)
(1.03165 0.00244534 0)
(1.03517 -0.000829929 0)
(1.03906 -0.00430204 0)
(1.04091 -0.00708247 0)
(1.00108 -0.000376528 0)
(0.999388 0.000698314 0)
(1.00218 -9.88447e-05 0)
(1.00162 0.00116072 0)
(1.00462 0.000812909 0)
(1.00495 0.00261485 0)
(1.00836 0.00311512 0)
(1.00964 0.00515742 0)
(1.0133 0.00608774 0)
(1.01503 0.00833849 0)
(1.01829 0.00976363 0)
(1.01939 0.0119505 0)
(1.02115 0.0129137 0)
(1.02091 0.0136385 0)
(1.02174 0.0128095 0)
(1.02226 0.0114146 0)
(1.02504 0.00856832 0)
(1.02757 0.00540793 0)
(1.03105 0.00140892 0)
(1.03325 -0.0022613 0)
(1.00085 -0.000432823 0)
(0.999604 0.00106435 0)
(1.00194 0.000250864 0)
(1.00195 0.00142229 0)
(1.00466 0.00109683 0)
(1.00578 0.00256875 0)
(1.00894 0.00301618 0)
(1.0109 0.00462474 0)
(1.01451 0.00559252 0)
(1.01707 0.00757691 0)
(1.02033 0.00919358 0)
(1.02178 0.0114511 0)
(1.02269 0.0131131 0)
(1.0218 0.014685 0)
(1.02122 0.0153467 0)
(1.02028 0.0155341 0)
(1.02058 0.0144824 0)
(1.02089 0.0126751 0)
(1.02214 0.00993599 0)
(1.02331 0.00703639 0)
(1.00027 -0.000351247 0)
(1.00009 0.00111168 0)
(1.00137 0.000474232 0)
(1.00238 0.00138603 0)
(1.00447 0.00141666 0)
(1.00647 0.00242818 0)
(1.00919 0.00276673 0)
(1.01197 0.00389854 0)
(1.01549 0.0047521 0)
(1.0189 0.00621743 0)
(1.02224 0.0074048 0)
(1.02442 0.0091434 0)
(1.02525 0.0108961 0)
(1.02444 0.0132332 0)
(1.02295 0.0151713 0)
(1.0209 0.0169132 0)
(1.01919 0.0176718 0)
(1.01779 0.0178417 0)
(1.0174 0.0172099 0)
(1.01806 0.016438 0)
(0.999631 -2.90358e-05 0)
(1.00064 0.000726535 0)
(1.00072 0.00064309 0)
(1.00293 0.00116769 0)
(1.00422 0.00156923 0)
(1.00705 0.00188994 0)
(1.0092 0.00225782 0)
(1.01289 0.00286557 0)
(1.01603 0.00371602 0)
(1.02007 0.0044813 0)
(1.0232 0.00533124 0)
(1.02654 0.00626674 0)
(1.02828 0.00773089 0)
(1.0289 0.00983612 0)
(1.02753 0.0125772 0)
(1.02541 0.0155034 0)
(1.0225 0.0182445 0)
(1.0202 0.0203537 0)
(1.0187 0.0221714 0)
(1.01894 0.0236107 0)
(0.998806 0.00017844 0)
(1.00142 0.000317371 0)
(1.00002 0.000548537 0)
(1.00379 0.00107287 0)
(1.00358 0.0011289 0)
(1.00763 0.00126516 0)
(1.00878 0.00139444 0)
(1.01387 0.00192258 0)
(1.01602 0.00242857 0)
(1.02109 0.00304023 0)
(1.02349 0.00369841 0)
(1.02816 0.00462552 0)
(1.03015 0.00577448 0)
(1.03339 0.00738405 0)
(1.03343 0.00951267 0)
(1.03331 0.0120347 0)
(1.03004 0.014897 0)
(1.02819 0.0179272 0)
(1.02625 0.0211143 0)
(1.02665 0.0241934 0)
(0.998634 0.000430962 0)
(1.0015 -0.00032863 0)
(1.00004 0.000592568 0)
(1.00389 0.000428987 0)
(1.00317 0.000569756 0)
(1.00765 0.000292545 0)
(1.00872 0.000765606 0)
(1.01429 0.000860186 0)
(1.01631 0.00137151 0)
(1.02195 0.00168345 0)
(1.0246 0.00264151 0)
(1.03009 0.00361838 0)
(1.03235 0.00504957 0)
(1.03627 0.00642489 0)
(1.03651 0.00815477 0)
(1.03792 0.0101128 0)
(1.03679 0.0128284 0)
(1.0377 0.016144 0)
(1.03727 0.0196401 0)
(1.03825 0.0229334 0)
(0.99917 0.00106912 0)
(1.00095 -0.00129295 0)
(1.0007 0.00121311 0)
(1.00319 -0.000944902 0)
(1.00346 0.000809216 0)
(1.00735 -0.00097507 0)
(1.00938 0.000940926 0)
(1.01417 -0.000509856 0)
(1.0171 0.00106467 0)
(1.02262 4.31322e-05 0)
(1.02658 0.00197622 0)
(1.03214 0.00177944 0)
(1.03549 0.00407358 0)
(1.03972 0.00469186 0)
(1.04179 0.00772019 0)
(1.04474 0.00975869 0)
(1.04588 0.0139744 0)
(1.04751 0.0170421 0)
(1.04722 0.0210949 0)
(1.04682 0.0231756 0)
(0.999771 0.000703855 0)
(1.00057 -0.000844839 0)
(1.00128 0.000799821 0)
(1.0026 -0.00081442 0)
(1.00401 0.000570743 0)
(1.00711 -0.000753373 0)
(1.01 0.000605211 0)
(1.01387 -0.000577859 0)
(1.01772 0.000548639 0)
(1.02294 -0.000389548 0)
(1.0281 0.000845955 0)
(1.03372 0.00030479 0)
(1.03884 0.00170812 0)
(1.0444 0.00175042 0)
(1.04944 0.00371506 0)
(1.0546 0.00467108 0)
(1.05824 0.00726457 0)
(1.06017 0.00871114 0)
(1.05881 0.011085 0)
(1.05413 0.0118524 0)
(1.01321 0.000347969 0)
(0.987366 0.000830153 0)
(0.961078 0.00126011 0)
(0.934737 0.00160461 0)
(0.908432 0.00187981 0)
(0.882127 0.00209802 0)
(0.855597 0.00222375 0)
(0.828797 0.00230488 0)
(0.801515 0.00236037 0)
(0.773845 0.00236698 0)
(0.745653 0.002401 0)
(0.717179 0.00241657 0)
(0.688321 0.00246832 0)
(0.659079 0.00249843 0)
(0.629327 0.00253036 0)
(0.599153 0.00255654 0)
(0.568397 0.0025831 0)
(0.537018 0.00259839 0)
(0.505284 0.00261843 0)
(0.472844 0.00263179 0)
(0.440298 0.00255791 0)
(0.407554 0.00250445 0)
(0.375385 0.00238684 0)
(0.344203 0.00222383 0)
(0.315112 0.00193456 0)
(0.28931 0.00149788 0)
(0.267613 0.0010236 0)
(0.25087 0.000437083 0)
(0.238848 -0.00010768 0)
(0.23044 -0.000459453 0)
(0.224319 -0.000618392 0)
(0.219825 -0.000634638 0)
(0.216295 -0.00058701 0)
(0.213445 -0.000520573 0)
(0.211069 -0.000444833 0)
(0.208842 -0.000320088 0)
(0.206726 -0.000192263 0)
(0.204383 -9.71727e-05 0)
(0.201944 -4.10883e-05 0)
(0.199282 -2.31885e-05 0)
(0.196573 3.92173e-06 0)
(0.193793 4.22949e-05 0)
(0.190983 7.80534e-05 0)
(0.188175 9.14525e-05 0)
(0.185317 8.69688e-05 0)
(0.182478 7.42759e-05 0)
(0.179675 5.81638e-05 0)
(0.17686 7.18785e-05 0)
(0.174243 8.40128e-05 0)
(0.171573 7.1633e-05 0)
(0.168995 5.64412e-05 0)
(0.166446 4.41624e-05 0)
(0.164 5.15577e-05 0)
(0.161707 5.59922e-05 0)
(0.159499 3.50203e-05 0)
(0.157204 2.87681e-05 0)
(0.155113 4.15826e-05 0)
(0.153096 3.78306e-05 0)
(0.15119 1.91113e-05 0)
(0.149275 1.92488e-05 0)
(0.147477 3.40655e-05 0)
(0.145685 2.80828e-05 0)
(0.144129 1.20519e-05 0)
(0.142546 1.32157e-05 0)
(0.140999 1.79983e-05 0)
(0.139489 1.5446e-05 0)
(0.138281 1.03305e-05 0)
(0.137023 6.53972e-06 0)
(0.135848 1.05676e-05 0)
(0.134607 1.39181e-05 0)
(0.133641 5.64688e-06 0)
(0.132697 2.502e-06 0)
(0.131877 9.19104e-06 0)
(0.130883 8.47836e-06 0)
(0.13019 2.75269e-06 0)
(0.129463 3.75508e-06 0)
(0.128922 5.64699e-06 0)
(0.1282 4.31712e-06 0)
(0.12777 2.9744e-06 0)
(0.127178 2.83539e-06 0)
(0.126876 2.73193e-06 0)
(0.12633 2.89143e-06 0)
(0.126129 2.03626e-06 0)
(0.125651 1.64571e-06 0)
(0.125566 1.71198e-06 0)
(0.125104 1.63447e-06 0)
(0.125114 9.54171e-07 0)
(0.124678 1.01046e-06 0)
(0.124789 8.69277e-07 0)
(0.124342 8.06075e-07 0)
(0.124547 5.30913e-07 0)
(0.1241 4.36867e-07 0)
(0.124379 5.70858e-07 0)
(0.123948 -3.74613e-07 0)
(0.124263 4.89077e-07 0)
(0.123937 -2.60606e-06 0)
(0.12422 -5.88272e-07 0)
(0.124229 -6.95775e-06 0)
(0.124378 -1.60351e-05 0)
(0.125636 -2.24859e-05 0)
(1.02624 0.001162 0)
(1.02388 0.0022192 0)
(1.02128 0.00318495 0)
(1.01811 0.00393877 0)
(1.01517 0.00454825 0)
(1.01176 0.00499235 0)
(1.00814 0.00525254 0)
(1.004 0.0053756 0)
(0.999134 0.00546234 0)
(0.99386 0.00546552 0)
(0.987493 0.00550849 0)
(0.980988 0.00556968 0)
(0.973184 0.00566851 0)
(0.96525 0.00578683 0)
(0.955812 0.00588814 0)
(0.946018 0.00601795 0)
(0.934792 0.00612253 0)
(0.922614 0.00623437 0)
(0.909473 0.0063143 0)
(0.894647 0.00640124 0)
(0.879479 0.0064263 0)
(0.862165 0.0064102 0)
(0.845118 0.00634578 0)
(0.826199 0.00616576 0)
(0.807908 0.00589405 0)
(0.789462 0.00541089 0)
(0.771641 0.0048293 0)
(0.755851 0.00413158 0)
(0.740392 0.00333785 0)
(0.727507 0.00264651 0)
(0.714677 0.00207309 0)
(0.702949 0.00168304 0)
(0.691883 0.00139928 0)
(0.68072 0.00122046 0)
(0.670498 0.0010852 0)
(0.659899 0.000915614 0)
(0.650293 0.000832017 0)
(0.640133 0.000783093 0)
(0.630383 0.000772255 0)
(0.620762 0.000778324 0)
(0.610844 0.000750744 0)
(0.601516 0.000713255 0)
(0.592053 0.00066172 0)
(0.582779 0.000654427 0)
(0.573612 0.000651653 0)
(0.564597 0.000627135 0)
(0.556 0.000612532 0)
(0.546944 0.000563624 0)
(0.538797 0.00052254 0)
(0.530603 0.000523743 0)
(0.522371 0.000508358 0)
(0.514594 0.000474921 0)
(0.506955 0.000427375 0)
(0.499534 0.000391597 0)
(0.492704 0.000408589 0)
(0.485514 0.000385391 0)
(0.478714 0.00031148 0)
(0.472389 0.000314227 0)
(0.466503 0.000322035 0)
(0.460108 0.000269624 0)
(0.454264 0.000251487 0)
(0.448911 0.000245268 0)
(0.443798 0.000219229 0)
(0.438365 0.000214981 0)
(0.433532 0.000193258 0)
(0.428745 0.000158839 0)
(0.424663 0.000156843 0)
(0.420337 0.000148081 0)
(0.416267 0.000127486 0)
(0.412309 0.000120832 0)
(0.409218 0.000103324 0)
(0.405644 8.7892e-05 0)
(0.402618 9.21542e-05 0)
(0.399492 8.27517e-05 0)
(0.397107 6.23811e-05 0)
(0.394301 5.83162e-05 0)
(0.392287 5.77767e-05 0)
(0.389812 4.98969e-05 0)
(0.388214 4.26811e-05 0)
(0.386021 3.73442e-05 0)
(0.384799 3.34266e-05 0)
(0.38283 3.05067e-05 0)
(0.381994 2.56501e-05 0)
(0.380215 2.1209e-05 0)
(0.379725 2.01124e-05 0)
(0.378077 1.71562e-05 0)
(0.377922 1.42129e-05 0)
(0.37636 1.16348e-05 0)
(0.376515 1.10586e-05 0)
(0.375006 8.18011e-06 0)
(0.375428 7.53856e-06 0)
(0.37399 4.92872e-06 0)
(0.374581 5.64749e-06 0)
(0.373318 1.80563e-06 0)
(0.373875 2.51571e-06 0)
(0.373056 -1.45945e-06 0)
(0.373257 -7.72867e-06 0)
(0.373395 -5.68441e-06 0)
(0.372892 -4.10195e-05 0)
(0.374951 -7.12792e-05 0)
(1.02573 0.0019156 0)
(1.02392 0.00302635 0)
(1.02235 0.00410253 0)
(1.02076 0.00502125 0)
(1.01987 0.00574754 0)
(1.01919 0.00630436 0)
(1.01872 0.00657998 0)
(1.01847 0.00668763 0)
(1.01789 0.0067041 0)
(1.01762 0.00666602 0)
(1.01672 0.00665221 0)
(1.01627 0.00670621 0)
(1.01517 0.00683175 0)
(1.01435 0.00696515 0)
(1.01295 0.00714937 0)
(1.0114 0.00730965 0)
(1.00958 0.00752297 0)
(1.00699 0.00766091 0)
(1.00449 0.00784195 0)
(1.00075 0.00799966 0)
(0.997338 0.00810393 0)
(0.99258 0.00817416 0)
(0.987991 0.00812151 0)
(0.982484 0.00804424 0)
(0.976692 0.00771592 0)
(0.970896 0.00727952 0)
(0.96438 0.00663784 0)
(0.958553 0.00587561 0)
(0.952115 0.0050929 0)
(0.946202 0.00427308 0)
(0.940326 0.00368905 0)
(0.934058 0.00321318 0)
(0.92845 0.00287684 0)
(0.922098 0.00267206 0)
(0.916343 0.0025157 0)
(0.910126 0.00235046 0)
(0.904197 0.00222386 0)
(0.897996 0.00219483 0)
(0.89163 0.00211368 0)
(0.88528 0.00206802 0)
(0.878509 0.00202734 0)
(0.871808 0.00196664 0)
(0.865006 0.00192388 0)
(0.857968 0.00186245 0)
(0.851053 0.00181953 0)
(0.843736 0.00173964 0)
(0.836828 0.00171163 0)
(0.829117 0.00167694 0)
(0.821988 0.00155214 0)
(0.814642 0.00152324 0)
(0.807054 0.00149097 0)
(0.79965 0.00141059 0)
(0.792179 0.00135998 0)
(0.784613 0.00126446 0)
(0.777541 0.0012196 0)
(0.769716 0.00121538 0)
(0.762543 0.00111843 0)
(0.755121 0.00103073 0)
(0.748168 0.00100712 0)
(0.740852 0.00098179 0)
(0.733646 0.000924321 0)
(0.726622 0.00083442 0)
(0.720243 0.000785023 0)
(0.713017 0.000791064 0)
(0.706617 0.000745202 0)
(0.699922 0.000647519 0)
(0.693982 0.000597948 0)
(0.687762 0.000591821 0)
(0.681922 0.000565037 0)
(0.675701 0.000498456 0)
(0.670895 0.000433189 0)
(0.665252 0.000415484 0)
(0.660355 0.00040867 0)
(0.655134 0.000355909 0)
(0.651119 0.000303981 0)
(0.646232 0.000286217 0)
(0.642642 0.000267713 0)
(0.638202 0.000233543 0)
(0.63521 0.000208259 0)
(0.631166 0.000186286 0)
(0.6287 0.000167879 0)
(0.624993 0.000147969 0)
(0.62313 0.000130467 0)
(0.619745 0.000111902 0)
(0.618376 0.000102279 0)
(0.615286 8.7096e-05 0)
(0.614424 7.63236e-05 0)
(0.611583 6.44319e-05 0)
(0.611145 5.77585e-05 0)
(0.608569 4.83259e-05 0)
(0.608455 4.01322e-05 0)
(0.606194 3.57625e-05 0)
(0.606236 2.55164e-05 0)
(0.604448 2.69882e-05 0)
(0.604379 9.76566e-06 0)
(0.603333 2.00025e-05 0)
(0.602866 -1.21093e-05 0)
(0.602897 3.41395e-06 0)
(0.60192 -4.87996e-05 0)
(0.603457 -0.000113935 0)
(1.02568 0.00243992 0)
(1.024 0.00336511 0)
(1.02229 0.00436953 0)
(1.02079 0.00536515 0)
(1.01984 0.00617837 0)
(1.01928 0.00681481 0)
(1.01894 0.00712367 0)
(1.01893 0.00719652 0)
(1.01881 0.00713261 0)
(1.01894 0.00699839 0)
(1.01888 0.00690546 0)
(1.01905 0.00689349 0)
(1.01915 0.00700172 0)
(1.0193 0.00711301 0)
(1.01949 0.00731047 0)
(1.01947 0.00750286 0)
(1.01966 0.007733 0)
(1.01937 0.00790238 0)
(1.01938 0.00811022 0)
(1.01886 0.00831939 0)
(1.01864 0.00844767 0)
(1.01801 0.00853213 0)
(1.01748 0.00851178 0)
(1.01676 0.00843826 0)
(1.0159 0.00809364 0)
(1.01504 0.00763339 0)
(1.01382 0.00694723 0)
(1.0125 0.00613213 0)
(1.0109 0.00533461 0)
(1.00898 0.00448756 0)
(1.00715 0.00390663 0)
(1.00473 0.00345627 0)
(1.00274 0.00312159 0)
(1.00019 0.00293752 0)
(0.998031 0.00278909 0)
(0.995599 0.00264992 0)
(0.993315 0.00257587 0)
(0.990938 0.0026073 0)
(0.988555 0.00255349 0)
(0.986017 0.0025228 0)
(0.983398 0.0025024 0)
(0.980499 0.00245523 0)
(0.97773 0.0024418 0)
(0.974512 0.00239768 0)
(0.97161 0.0023847 0)
(0.968222 0.00229708 0)
(0.965172 0.00227866 0)
(0.961501 0.00228474 0)
(0.958136 0.00212722 0)
(0.954416 0.00212592 0)
(0.950661 0.00212006 0)
(0.946683 0.0020134 0)
(0.942883 0.00198658 0)
(0.938575 0.00186893 0)
(0.934804 0.00182721 0)
(0.930219 0.00185816 0)
(0.926141 0.00172737 0)
(0.921548 0.00162936 0)
(0.917373 0.00160589 0)
(0.912632 0.00157846 0)
(0.908199 0.00153717 0)
(0.903343 0.00140751 0)
(0.899191 0.00133459 0)
(0.894019 0.00136593 0)
(0.889643 0.00130996 0)
(0.884608 0.00118186 0)
(0.880257 0.00110877 0)
(0.875266 0.00108995 0)
(0.870938 0.00107444 0)
(0.865741 0.000983172 0)
(0.861858 0.000869261 0)
(0.856873 0.000845656 0)
(0.852782 0.000843266 0)
(0.84793 0.000754906 0)
(0.844338 0.000671263 0)
(0.839542 0.000640075 0)
(0.836162 0.000606406 0)
(0.831607 0.00054617 0)
(0.828562 0.000498782 0)
(0.824219 0.000456326 0)
(0.821521 0.000420635 0)
(0.817382 0.00037943 0)
(0.8151 0.000341817 0)
(0.811217 0.000305294 0)
(0.809288 0.000278952 0)
(0.805688 0.000247566 0)
(0.804137 0.000219103 0)
(0.800815 0.000195859 0)
(0.799592 0.000171333 0)
(0.79661 0.000154732 0)
(0.795646 0.000127079 0)
(0.793052 0.000122016 0)
(0.792233 8.95983e-05 0)
(0.79015 9.58469e-05 0)
(0.789307 5.413e-05 0)
(0.787893 7.14531e-05 0)
(0.786897 1.73166e-05 0)
(0.78631 3.12563e-05 0)
(0.785215 -2.91236e-05 0)
(0.785621 -0.00012923 0)
(1.02589 0.00247223 0)
(1.0243 0.00316072 0)
(1.02255 0.00404947 0)
(1.02101 0.00513262 0)
(1.01999 0.00606589 0)
(1.0193 0.00680947 0)
(1.01894 0.00720053 0)
(1.01877 0.00727613 0)
(1.01876 0.0071741 0)
(1.01879 0.00694038 0)
(1.01892 0.00680473 0)
(1.01909 0.00672756 0)
(1.01939 0.00684042 0)
(1.01962 0.00694641 0)
(1.01999 0.00717629 0)
(1.0202 0.00741901 0)
(1.02056 0.00765709 0)
(1.02068 0.00787576 0)
(1.02096 0.00806745 0)
(1.02102 0.00830624 0)
(1.02129 0.00839278 0)
(1.02141 0.00847662 0)
(1.02173 0.00844095 0)
(1.02189 0.0083256 0)
(1.02225 0.00798406 0)
(1.02242 0.00746724 0)
(1.02262 0.00679419 0)
(1.0225 0.00593049 0)
(1.02228 0.0051365 0)
(1.02166 0.0043093 0)
(1.02108 0.00373594 0)