/*--------------------------------*- C++ -*----------------------------------*\
  =========                 |
  \\      /  F ield         | OpenFOAM: The Open Source CFD Toolbox
   \\    /   O peration     | Website:  https://openfoam.org
    \\  /    A nd           | Version:  6
     \\/     M anipulation  |
\*---------------------------------------------------------------------------*/
FoamFile
{
    version     2.0;
    format      ascii;
    class       volScalarField;
    location    "0.2";
    object      p;
}
// * * * * * * * * * * * * * * * * * * * * * * * * * * * * * * * * * * * * * //

dimensions      [0 2 -2 0 0 0 0];

internalField   nonuniform List<scalar> 
4800
(
2.94861e-11
9.86342e-06
5.444e-05
-9.71729e-06
7.30919e-05
0.000432753
0.000517962
0.000247005
0.000141534
0.000438473
0.000774186
0.000852548
0.000791886
0.000897038
0.00121112
0.00131091
0.00129631
0.00136978
0.00142016
0.00157623
1.91518e-06
1.04518e-05
5.5646e-05
-9.27959e-06
7.11499e-05
0.000429788
0.000514797
0.000247862
0.000141235
0.000443392
0.000778029
0.000854581
0.000794107
0.000892312
0.00121885
0.00131568
0.00129134
0.00137535
0.00140341
0.00157583
5.3313e-06
1.12409e-05
5.54831e-05
-1.06451e-05
6.90199e-05
0.000428753
0.000510624
0.000254622
0.000139763
0.000443575
0.00078257
0.000861482
0.000787405
0.000880931
0.00123858
0.00132996
0.00129885
0.00137753
0.00136669
0.00160581
7.66495e-06
1.1515e-05
5.57774e-05
-1.17676e-05
6.77442e-05
0.000427649
0.000503836
0.000262362
0.000137065
0.000439833
0.000792448
0.000873174
0.000776857
0.000868984
0.00125329
0.00136719
0.00132654
0.00135254
0.00132854
0.00161723
8.11744e-06
1.31408e-05
5.57091e-05
-1.35083e-05
6.59623e-05
0.000426613
0.000499135
0.000267916
0.00014123
0.000434937
0.00079464
0.000889767
0.000778414
0.000841999
0.00125739
0.00142815
0.00134729
0.00133302
0.0013141
0.00155814
8.6715e-06
1.65425e-05
5.34384e-05
-1.26167e-05
6.36535e-05
0.000425962
0.000496366
0.000265163
0.000153479
0.000425869
0.000787785
0.000915578
0.000786345
0.000810571
0.00126268
0.00147129
0.00136066
0.00136071
0.00130295
0.00143378
1.12038e-05
2.02692e-05
4.96125e-05
-9.03725e-06
5.63271e-05
0.000425411
0.000496766
0.00025487
0.000171899
0.000423104
0.000774922
0.000928551
0.000805916
0.000804631
0.00124409
0.00147355
0.00139228
0.00140617
0.00127107
0.00131519
1.28182e-05
2.16377e-05
4.74042e-05
-5.73918e-06
4.75672e-05
0.000428287
0.000499075
0.000240165
0.000190117
0.000427692
0.000752077
0.000930233
0.000846612
0.000807185
0.00119484
0.00147097
0.00142869
0.00140352
0.0012354
0.00124992
1.01284e-05
2.58977e-05
4.96645e-05
-7.16344e-06
4.31444e-05
0.000426273
0.00049972
0.000231242
0.000197515
0.000436028
0.000741427
0.000928469
0.000867383
0.000803328
0.00116981
0.00147741
0.00140445
0.00132991
0.00122208
0.0012021
7.59242e-06
3.7627e-05
4.61308e-05
-1.4367e-05
4.75199e-05
0.000412986
0.000506585
0.000235059
0.000182767
0.000447688
0.00075461
0.000907942
0.000851152
0.00082108
0.0011834
0.00145037
0.00130638
0.00122461
0.00120961
0.0011117
7.21828e-06
4.70608e-05
3.58803e-05
-1.34839e-05
5.71531e-05
0.000387491
0.000520613
0.000244016
0.000149313
0.000461817
0.000784389
0.000879777
0.000822837
0.000842379
0.00117928
0.00139088
0.00120877
0.00110127
0.00110338
0.000949299
3.19001e-06
5.22848e-05
3.76742e-05
-1.00105e-05
5.33781e-05
0.000362081
0.000538351
0.000253964
0.00011828
0.000471441
0.000811629
0.000857577
0.000788106
0.00083077
0.00114443
0.00134244
0.0011361
0.000918758
0.000866657
0.000774135
-4.66603e-06
6.33055e-05
4.94233e-05
-2.78114e-05
4.64549e-05
0.000362528
0.00054281
0.000256193
0.000105411
0.000465078
0.0008146
0.000848535
0.00076745
0.000800825
0.001083
0.00127037
0.00103542
0.000713669
0.000622918
0.000640002
-1.17337e-05
7.70181e-05
5.61192e-05
-5.49006e-05
6.04821e-05
0.00037238
0.000507699
0.000258331
0.00012826
0.000444185
0.000786729
0.000855616
0.000773577
0.000750568
0.000958096
0.0011311
0.000926519
0.00059359
0.000461932
0.000479693
-1.86688e-05
8.44353e-05
6.60402e-05
-6.83659e-05
7.05224e-05
0.000360196
0.000465098
0.000288319
0.000170707
0.000398252
0.000729118
0.000864256
0.000785683
0.000675651
0.000790336
0.000976589
0.000858778
0.000537086
0.000319713
0.000267337
-2.71859e-05
8.72815e-05
8.94206e-05
-7.82605e-05
4.755e-05
0.000352412
0.00046589
0.000312818
0.000169902
0.000340291
0.000686936
0.00087097
0.000776541
0.000593675
0.000640561
0.000837528
0.000776497
0.00044079
0.000173108
0.000127195
-3.52314e-05
8.81053e-05
0.000117615
-9.27005e-05
1.00857e-05
0.000373653
0.000484725
0.000276322
0.000131904
0.000342361
0.000698494
0.000835888
0.000691973
0.000502431
0.000539291
0.000709367
0.000646211
0.00032149
8.84707e-05
0.000121335
-4.08463e-05
8.369e-05
0.000142558
-9.62068e-05
-2.44292e-05
0.000388555
0.000484607
0.000219866
0.000123856
0.000399031
0.000692229
0.000706472
0.000541336
0.000442026
0.000519897
0.000621092
0.000504779
0.000207243
3.94794e-05
0.000162452
-4.38884e-05
7.26438e-05
0.00016469
-7.9728e-05
-6.55178e-05
0.00036688
0.000491515
0.000212548
0.000126027
0.00039684
0.000617678
0.000570846
0.000447433
0.000441719
0.00052283
0.000521894
0.000338078
7.41664e-05
-9.89238e-06
0.000202745
-4.4143e-05
5.73388e-05
0.000181743
-4.97543e-05
-0.000113015
0.00032091
0.000524892
0.000239825
7.3243e-05
0.0003075
0.000561541
0.000554572
0.00042739
0.000375754
0.000394607
0.000359494
0.000212301
3.44483e-05
1.11787e-05
0.000220451
-4.12275e-05
4.00483e-05
0.000188176
-1.2e-05
-0.000149296
0.000262259
0.000551382
0.000263897
-6.76119e-06
0.0002132
0.000566898
0.000593732
0.000351241
0.000161059
0.000175189
0.00027253
0.000276277
0.000156593
3.38642e-05
6.45395e-05
-3.55356e-05
2.24315e-05
0.000181813
3.06886e-05
-0.000163773
0.000187146
0.000540458
0.000294044
-4.38006e-05
0.000138287
0.000535364
0.000559871
0.000220157
-3.58727e-05
6.24279e-05
0.000325945
0.000406688
0.000199986
-0.000139465
-0.000305992
-2.81228e-05
6.55592e-06
0.000164156
7.17432e-05
-0.000157776
0.000101355
0.000494964
0.000339826
-3.39412e-05
4.09501e-05
0.000407943
0.000477913
0.000175602
-7.19618e-05
3.16769e-05
0.000290822
0.000314947
1.48422e-05
-0.000387801
-0.000565352
-2.02065e-05
-5.75378e-06
0.000137908
0.000102929
-0.000134896
2.24235e-05
0.000423764
0.000375005
-1.01068e-05
-6.9536e-05
0.000248098
0.000419952
0.000221507
-5.61605e-05
-9.84264e-05
3.84838e-05
6.13185e-05
-0.000132248
-0.000376564
-0.000470618
-1.29751e-05
-1.37923e-05
0.000106592
0.000119351
-0.000100003
-3.755e-05
0.000330021
0.000373627
1.92567e-05
-0.000142129
0.00011093
0.00035019
0.000225937
-0.000105165
-0.000291943
-0.000215745
-7.13337e-05
-6.38384e-05
-0.000182574
-0.000328786
-7.44154e-06
-1.79256e-05
7.43508e-05
0.000120006
-6.16944e-05
-7.61762e-05
0.000223652
0.000334898
5.33393e-05
-0.000166788
-1.4804e-05
0.000216232
0.0001506
-0.000157801
-0.000375193
-0.000309148
-0.000105207
-3.93582e-05
-0.000195333
-0.000461191
-4.24175e-06
-1.92228e-05
4.47297e-05
0.000106521
-2.93305e-05
-9.54477e-05
0.000120981
0.000268001
7.40731e-05
-0.000170716
-0.000133079
5.23508e-05
5.83858e-05
-0.000157551
-0.000358845
-0.00036597
-0.000255521
-0.000241053
-0.000401648
-0.00062
-3.55371e-06
-1.91346e-05
1.97469e-05
8.25374e-05
-9.06236e-06
-0.000100283
3.33592e-05
0.000181095
6.47423e-05
-0.000170791
-0.000219748
-8.90366e-05
-3.29403e-05
-0.00016957
-0.000374166
-0.000483755
-0.000473432
-0.000445538
-0.000482883
-0.00055482
-5.17359e-06
-1.91094e-05
-1.40436e-07
5.2762e-05
-3.09773e-06
-9.83841e-05
-3.58902e-05
8.53132e-05
2.65596e-05
-0.000172037
-0.000270392
-0.000205055
-0.000148623
-0.000241142
-0.000430289
-0.000567542
-0.000575364
-0.000507289
-0.00047216
-0.000520916
-8.65718e-06
-2.02258e-05
-1.56234e-05
2.15402e-05
-1.04957e-05
-9.72523e-05
-8.78627e-05
-6.50651e-06
-3.08071e-05
-0.000183942
-0.000305333
-0.000305273
-0.000274765
-0.000331217
-0.000466319
-0.000579279
-0.000607463
-0.000586012
-0.00060027
-0.00069446
-1.34593e-05
-2.30215e-05
-2.80006e-05
-8.04201e-06
-2.79867e-05
-0.00010139
-0.00012613
-8.63674e-05
-9.85892e-05
-0.000213112
-0.000337372
-0.000382659
-0.000379355
-0.000411563
-0.000503693
-0.000611303
-0.000688575
-0.000733148
-0.000773364
-0.000825529
-1.90249e-05
-2.7502e-05
-3.8613e-05
-3.43025e-05
-5.1196e-05
-0.000111955
-0.000155457
-0.000151825
-0.000167772
-0.000254855
-0.000368183
-0.000437958
-0.000463202
-0.000497977
-0.000576708
-0.000681018
-0.000768283
-0.000814868
-0.000829723
-0.000840423
-2.48089e-05
-3.32104e-05
-4.83738e-05
-5.67143e-05
-7.60824e-05
-0.000127663
-0.000179522
-0.00020276
-0.000229636
-0.00030062
-0.000400283
-0.000483068
-0.000535359
-0.000583824
-0.000652842
-0.00073498
-0.000804952
-0.000849871
-0.000881272
-0.000922686
-3.02599e-05
-3.9328e-05
-5.74659e-05
-7.53056e-05
-9.9655e-05
-0.000145942
-0.000200026
-0.000240277
-0.000279038
-0.000343338
-0.000432254
-0.000519412
-0.000588395
-0.000647545
-0.000712111
-0.000785339
-0.000858758
-0.000923882
-0.000979082
-0.00102666
-3.48139e-05
-4.48464e-05
-6.5326e-05
-8.99162e-05
-0.000119679
-0.00016379
-0.000217225
-0.000266377
-0.000314165
-0.000376277
-0.000456521
-0.000541577
-0.000618826
-0.00068933
-0.000762018
-0.000840725
-0.000919444
-0.000988224
-0.00104141
-0.00108141
-3.79464e-05
-4.87856e-05
-7.09727e-05
-9.99536e-05
-0.000134215
-0.000177986
-0.000229875
-0.000282303
-0.00033469
-0.00039508
-0.000467855
-0.000547817
-0.000627483
-0.000705213
-0.000784122
-0.000865697
-0.000946884
-0.00102263
-0.00108981
-0.00114838
-3.93257e-05
-5.04791e-05
-7.35423e-05
-0.000104818
-0.000141838
-0.000185626
-0.00023564
-0.000287875
-0.000340933
-0.000398497
-0.000463956
-0.000536026
-0.000611026
-0.000687388
-0.000766546
-0.000850296
-0.000938159
-0.00102697
-0.00111221
-0.00118974
-3.89984e-05
-4.99001e-05
-7.29448e-05
-0.000104743
-0.000142549
-0.000185627
-0.000233276
-0.000283286
-0.000334304
-0.000387662
-0.000445386
-0.000507705
-0.000573448
-0.000642203
-0.00071526
-0.000794574
-0.00088121
-0.000974713
-0.00107345
-0.00117516
-3.75288e-05
-4.78225e-05
-7.02662e-05
-0.000101511
-0.000138753
-0.000180392
-0.000225375
-0.000272304
-0.000320129
-0.000369092
-0.000420107
-0.000473622
-0.000529522
-0.000588067
-0.000650612
-0.000719576
-0.000797906
-0.000888505
-0.000993723
-0.00111486
-3.60344e-05
-4.57906e-05
-6.76856e-05
-9.82504e-05
-0.000134773
-0.000175365
-0.000218657
-0.00026345
-0.000309
-0.000355343
-0.000402882
-0.000451832
-0.000502265
-0.000554688
-0.000610531
-0.000672291
-0.000743462
-0.000828387
-0.000931952
-0.00105891
0.00192449
0.00338661
0.00437895
0.00426675
0.00347354
0.00268572
0.0022226
0.00183209
0.00127717
0.000715057
0.000343026
0.000117893
-0.000157983
-0.000574681
-0.0009742
-0.00121799
-0.00140278
-0.00177333
-0.00243504
-0.0030875
-0.00359383
-0.00429584
-0.00515529
-0.00590513
-0.00668994
-0.00746511
-0.00796232
-0.00817977
-0.00810055
-0.00773289
-0.00726834
-0.00673009
-0.0061199
-0.00564794
-0.00535488
-0.00515628
-0.00519214
-0.00547209
-0.00562233
-0.00545304
-0.00523781
-0.00520758
-0.00525771
-0.00524022
-0.00517763
-0.00513814
-0.00511869
-0.00508913
-0.00504706
-0.00500652
-0.00497532
-0.00495442
-0.00494372
-0.00494262
-0.0049494
-0.00496188
-0.00497829
-0.0049974
-0.00501834
-0.00504057
-0.00506374
-0.00508771
-0.00511242
-0.0051379
-0.00516408
-0.00519109
-0.00521878
-0.00524737
-0.00527653
-0.00530671
-0.00533726
-0.00536905
-0.00540089
-0.00543434
-0.00546738
-0.00550248
-0.00553673
-0.00557338
-0.00560908
-0.00564688
-0.00568459
-0.00572289
-0.00576336
-0.00580153
-0.00584506
-0.00588346
-0.00592885
-0.00596956
-0.00601404
-0.00605961
-0.00610138
-0.0061508
-0.0061925
-0.00623922
-0.00628394
-0.00632305
-0.00636105
-0.00639275
-0.00640223
-0.0063976
0.00197985
0.003235
0.0041704
0.00409959
0.0033548
0.00260817
0.00216068
0.00177361
0.00122931
0.000674902
0.000299437
7.61719e-05
-0.00018379
-0.000595547
-0.0010077
-0.00125076
-0.00142454
-0.00179762
-0.00246109
-0.00310552
-0.00360598
-0.00430252
-0.00515415
-0.00589423
-0.00666233
-0.00741759
-0.00790563
-0.00812893
-0.00806005
-0.00770077
-0.00724602
-0.00671832
-0.00611542
-0.00564834
-0.0053586
-0.00515963
-0.00519228
-0.00546971
-0.0056194
-0.00545077
-0.00523664
-0.00520722
-0.00525745
-0.00523973
-0.00517717
-0.00513797
-0.00511881
-0.00508946
-0.00504756
-0.00500712
-0.00497588
-0.00495487
-0.004944
-0.00494277
-0.00494945
-0.00496186
-0.00497825
-0.00499736
-0.00501831
-0.00504055
-0.00506372
-0.00508771
-0.00511242
-0.0051379
-0.00516408
-0.00519109
-0.00521878
-0.00524737
-0.00527653
-0.00530672
-0.00533726
-0.00536905
-0.00540089
-0.00543434
-0.00546738
-0.00550248
-0.00553673
-0.00557338
-0.00560908
-0.00564688
-0.0056846
-0.00572288
-0.00576336
-0.00580152
-0.00584506
-0.00588346
-0.00592886
-0.00596956
-0.00601403
-0.00605962
-0.00610137
-0.00615081
-0.0061925
-0.00623923
-0.00628395
-0.00632307
-0.00636106
-0.00639277
-0.00640242
-0.00639764
0.00201575
0.00295101
0.00380169
0.00382434
0.00318821
0.00253279
0.00212585
0.00174417
0.00120175
0.000640099
0.000250623
2.32022e-05
-0.000224587
-0.000621803
-0.00103796
-0.00128873
-0.00145901
-0.00183433
-0.0024918
-0.00311683
-0.00361636
-0.0043122
-0.00514294
-0.00586395
-0.00660731
-0.00732525
-0.00779362
-0.00802533
-0.00797502
-0.0076326
-0.00719171
-0.0066774
-0.0060888
-0.00563573
-0.00535943
-0.00517021
-0.00520149
-0.00546742
-0.00560851
-0.00544199
-0.00523413
-0.00520684
-0.00525551
-0.00523689
-0.00517506
-0.00513671
-0.00511784
-0.00508868
-0.00504713
-0.00500707
-0.00497611
-0.00495525
-0.00494446
-0.00494323
-0.00494986
-0.0049622
-0.00497851
-0.00499754
-0.00501843
-0.00504062
-0.00506377
-0.00508774
-0.00511244
-0.00513791
-0.00516409
-0.00519109
-0.00521878
-0.00524737
-0.00527653
-0.00530672
-0.00533726
-0.00536906
-0.00540089
-0.00543434
-0.00546738
-0.00550248
-0.00553673
-0.00557338
-0.00560908
-0.00564688
-0.0056846
-0.00572288
-0.00576336
-0.00580152
-0.00584507
-0.00588345
-0.00592886
-0.00596956
-0.00601403
-0.00605962
-0.00610137
-0.00615082
-0.0061925
-0.00623925
-0.00628396
-0.00632311
-0.00636111
-0.00639279
-0.00640286
-0.00639792
0.00198253
0.00263007
0.00340322
0.00353602
0.0030289
0.00247426
0.00211035
0.00173262
0.00117526
0.000590095
0.000194656
-2.64234e-05
-0.000259493
-0.000639604
-0.00106537
-0.00132885
-0.00148974
-0.00186173
-0.00251126
-0.00312166
-0.00363039
-0.00432086
-0.00511375
-0.00580712
-0.00652242
-0.00719626
-0.0076394
-0.00788153
-0.0078588
-0.00753939
-0.00711181
-0.00661414
-0.00605017
-0.00562001
-0.00536293
-0.00518817
-0.00521664
-0.00546271
-0.00558969
-0.00542762
-0.00523
-0.00520518
-0.00525105
-0.00523148
-0.00517095
-0.00513333
-0.0051143
-0.00508537
-0.00504493
-0.00500629
-0.00497652
-0.00495642
-0.00494596
-0.0049447
-0.00495109
-0.00496312
-0.00497913
-0.00499793
-0.00501866
-0.00504074
-0.00506383
-0.00508776
-0.00511245
-0.00513791
-0.00516409
-0.00519109
-0.00521878
-0.00524737
-0.00527653
-0.00530672
-0.00533726
-0.00536906
-0.00540089
-0.00543434
-0.00546738
-0.00550248
-0.00553673
-0.00557338
-0.00560908
-0.00564688
-0.00568459
-0.00572288
-0.00576336
-0.00580152
-0.00584507
-0.00588346
-0.00592885
-0.00596957
-0.00601403
-0.00605963
-0.00610138
-0.00615083
-0.00619252
-0.00623928
-0.006284
-0.00632317
-0.00636121
-0.00639282
-0.00640349
-0.0063984
0.00189964
0.00238611
0.00305251
0.00323435
0.00283116
0.00236499
0.00206262
0.0017201
0.00115921
0.00055267
0.000156194
-5.14878e-05
-0.000275436
-0.000665391
-0.00111082
-0.00136799
-0.00151189
-0.00188709
-0.00252997
-0.00312703
-0.00364555
-0.00432077
-0.00506098
-0.0057234
-0.00641831
-0.00704864
-0.00746061
-0.00771555
-0.00772779
-0.00743396
-0.00702217
-0.00654929
-0.00601885
-0.005616
-0.00537837
-0.00521461
-0.00523386
-0.00545511
-0.00556809
-0.00541323
-0.00522702
-0.00520379
-0.00524593
-0.00522521
-0.00516594
-0.00512902
-0.00511009
-0.00508203
-0.00504325
-0.00500626
-0.00497758
-0.00495796
-0.00494754
-0.00494608
-0.00495217
-0.00496391
-0.00497968
-0.00499831
-0.00501891
-0.0050409
-0.00506393
-0.00508782
-0.00511248
-0.00513793
-0.0051641
-0.0051911
-0.00521878
-0.00524737
-0.00527653
-0.00530672
-0.00533726
-0.00536906
-0.00540089
-0.00543434
-0.00546737
-0.00550248
-0.00553673
-0.00557338
-0.00560908
-0.00564689
-0.00568459
-0.00572289
-0.00576336
-0.00580153
-0.00584506
-0.00588346
-0.00592885
-0.00596958
-0.00601403
-0.00605964
-0.00610139
-0.00615084
-0.00619255
-0.00623931
-0.00628404
-0.00632326
-0.00636133
-0.0063929
-0.00640422
-0.00639895
0.00181253
0.00223284
0.00270978
0.00286717
0.00257217
0.00221346
0.00201186
0.00174184
0.00119048
0.0005475
0.000121363
-8.2696e-05
-0.000308028
-0.000724314
-0.00117156
-0.0013962
-0.00153016
-0.00191736
-0.00254377
-0.00312272
-0.00365471
-0.00431196
-0.00499289
-0.00562605
-0.00630641
-0.00689281
-0.00727188
-0.00754179
-0.00759165
-0.00732801
-0.00694056
-0.00649989
-0.00600522
-0.00562663
-0.00540088
-0.00523975
-0.00524602
-0.00544413
-0.00554596
-0.00539905
-0.0052233
-0.00520073
-0.00523889
-0.00521727
-0.00515979
-0.00512417
-0.00510574
-0.0050785
-0.00504103
-0.00500529
-0.00497751
-0.00495847
-0.0049484
-0.00494709
-0.00495319
-0.00496483
-0.00498044
-0.00499888
-0.0050193
-0.00504116
-0.00506408
-0.00508791
-0.00511253
-0.00513795
-0.00516411
-0.0051911
-0.00521878
-0.00524737
-0.00527653
-0.00530672
-0.00533726
-0.00536906
-0.00540089
-0.00543434
-0.00546737
-0.00550248
-0.00553673
-0.00557338
-0.00560907
-0.00564689
-0.00568459
-0.00572289
-0.00576336
-0.00580153
-0.00584506
-0.00588347
-0.00592885
-0.00596958
-0.00601403
-0.00605965
-0.0061014
-0.00615085
-0.00619258
-0.00623935
-0.0062841
-0.00632335
-0.00636149
-0.00639301
-0.00640497
-0.00639953
0.00173845
0.0020832
0.00232165
0.00245634
0.0023248
0.00209513
0.00198501
0.00178018
0.00122798
0.000529814
6.06847e-05
-0.00014271
-0.00036052
-0.000778987
-0.00121223
-0.00141637
-0.00155589
-0.00194824
-0.00254902
-0.00311729
-0.00366607
-0.00429852
-0.0049182
-0.00552133
-0.00618579
-0.00673493
-0.00708774
-0.00737006
-0.0074567
-0.00723155
-0.00687622
-0.00646718
-0.00600092
-0.00563542
-0.00541151
-0.00525066
-0.00524894
-0.00542911
-0.00552089
-0.0053809
-0.00521531
-0.00519417
-0.00522948
-0.005208
-0.005153
-0.00511881
-0.00510059
-0.00507389
-0.00503782
-0.0050038
-0.00497754
-0.00495959
-0.0049501
-0.0049489
-0.00495479
-0.00496607
-0.00498132
-0.00499945
-0.00501965
-0.00504135
-0.00506419
-0.00508796
-0.00511255
-0.00513796
-0.00516411
-0.0051911
-0.00521878
-0.00524737
-0.00527653
-0.00530671
-0.00533726
-0.00536905
-0.00540088
-0.00543434
-0.00546737
-0.00550248
-0.00553673
-0.00557338
-0.00560907
-0.00564689
-0.00568459
-0.00572289
-0.00576336
-0.00580153
-0.00584506
-0.00588347
-0.00592885
-0.00596959
-0.00601403
-0.00605965
-0.00610142
-0.00615086
-0.00619263
-0.00623939
-0.00628419
-0.00632345
-0.00636167
-0.00639316
-0.0064057
-0.00640015
0.00162471
0.00185112
0.00192338
0.00209092
0.00214663
0.00202306
0.0019427
0.0017726
0.00122557
0.000499012
1.24488e-05
-0.000196223
-0.00040462
-0.000808181
-0.00124847
-0.00146391
-0.00159974
-0.00197584
-0.00255462
-0.00311876
-0.0036701
-0.00426854
-0.00483695
-0.00541572
-0.00606561
-0.00658624
-0.00691529
-0.0072022
-0.00732371
-0.00714314
-0.00682107
-0.00643443
-0.0059821
-0.00561934
-0.00539837
-0.00524793
-0.00524748
-0.00541237
-0.00549321
-0.00536034
-0.00520675
-0.00518878
-0.00522193
-0.00520042
-0.00514729
-0.00511399
-0.00509587
-0.00507005
-0.00503577
-0.00500356
-0.00497848
-0.00496103
-0.00495157
-0.00495016
-0.00495577
-0.00496681
-0.00498188
-0.00499987
-0.00501995
-0.00504156
-0.00506432
-0.00508804
-0.00511259
-0.00513798
-0.00516411
-0.0051911
-0.00521877
-0.00524736
-0.00527652
-0.00530671
-0.00533725
-0.00536905
-0.00540088
-0.00543433
-0.00546737
-0.00550248
-0.00553673
-0.00557338
-0.00560907
-0.00564689
-0.00568459
-0.00572289
-0.00576336
-0.00580153
-0.00584506
-0.00588348
-0.00592884
-0.0059696
-0.00601403
-0.00605966
-0.00610144
-0.00615087
-0.00619268
-0.00623943
-0.00628429
-0.00632356
-0.0063619
-0.00639333
-0.00640639
-0.00640081
0.00141306
0.00155925
0.00162459
0.0018279
0.00199632
0.00194659
0.00186317
0.00171593
0.00120905
0.000496098
1.64913e-06
-0.000239683
-0.000463829
-0.000857347
-0.0013085
-0.00152762
-0.00163795
-0.00199372
-0.00256063
-0.00311723
-0.00365954
-0.00422705
-0.00476093
-0.00532399
-0.00595344
-0.00643904
-0.0067437
-0.00703484
-0.00718937
-0.00705116
-0.00675538
-0.00637798
-0.00593098
-0.00557732
-0.00537578
-0.00524868
-0.00525274
-0.00540056
-0.00546964
-0.00534478
-0.00520357
-0.00518752
-0.00521641
-0.00519313
-0.00514112
-0.0051087
-0.00509081
-0.00506566
-0.00503261
-0.00500163
-0.00497755
-0.00496093
-0.00495213
-0.00495115
-0.00495694
-0.00496794
-0.00498281
-0.00500056
-0.00502042
-0.00504184
-0.00506447
-0.00508811
-0.00511262
-0.00513798
-0.00516411
-0.00519109
-0.00521876
-0.00524735
-0.00527651
-0.0053067
-0.00533724
-0.00536904
-0.00540087
-0.00543433
-0.00546736
-0.00550248
-0.00553672
-0.00557338
-0.00560907
-0.00564689
-0.00568459
-0.00572289
-0.00576336
-0.00580154
-0.00584506
-0.00588348
-0.00592884
-0.00596961
-0.00601404
-0.00605967
-0.00610147
-0.00615088
-0.00619274
-0.00623948
-0.00628442
-0.00632366
-0.00636216
-0.00639352
-0.00640705
-0.00640153
0.00112779
0.00130029
0.00146966
0.00162875
0.00180007
0.0018466
0.00179709
0.00166084
0.00119959
0.00050586
-1.70986e-05
-0.000307332
-0.000556447
-0.000928134
-0.00135224
-0.00156208
-0.00167075
-0.00202345
-0.00257465
-0.0031171
-0.00364518
-0.00417743
-0.00468407
-0.00523902
-0.00583907
-0.00628247
-0.00657103
-0.00687057
-0.00704754
-0.0069377
-0.00665899
-0.00629083
-0.00586333
-0.00554028
-0.00537102
-0.00526619
-0.00526839
-0.00539519
-0.00545074
-0.0053315
-0.00519925
-0.00518223
-0.00520574
-0.00518123
-0.00513141
-0.00510058
-0.0050832
-0.00505903
-0.00502796
-0.00499934
-0.00497733
-0.00496211
-0.00495396
-0.00495303
-0.0049585
-0.00496908
-0.00498358
-0.00500104
-0.00502071
-0.00504202
-0.00506457
-0.00508816
-0.00511264
-0.00513798
-0.0051641
-0.00519108
-0.00521875
-0.00524734
-0.0052765
-0.00530669
-0.00533723
-0.00536903
-0.00540087
-0.00543432
-0.00546736
-0.00550247
-0.00553672
-0.00557338
-0.00560907
-0.00564689
-0.00568458
-0.00572289
-0.00576335
-0.00580154
-0.00584505
-0.00588349
-0.00592884
-0.00596961
-0.00601405
-0.00605967
-0.0061015
-0.00615089
-0.00619281
-0.00623954
-0.00628455
-0.00632379
-0.00636246
-0.00639373
-0.00640769
-0.00640229
0.000870776
0.00112783
0.00139115
0.00145172
0.00158679
0.00176986
0.00178665
0.00160793
0.00114908
0.00047578
-7.63108e-05
-0.000395531
-0.000640085
-0.000973482
-0.00136368
-0.00159575
-0.00173795
-0.00207191
-0.00258447
-0.00311084
-0.00361443
-0.00410449
-0.00460123
-0.00516192
-0.0057262
-0.00612293
-0.00639925
-0.00670213
-0.00688512
-0.00679204
-0.00653718
-0.00620249
-0.00581929
-0.00553361
-0.00538496
-0.00528761
-0.00528036
-0.00538362
-0.00542328
-0.00530744
-0.00518429
-0.00516903
-0.0051907
-0.0051676
-0.00512144
-0.00509314
-0.00507718
-0.00505481
-0.00502592
-0.00499902
-0.00497789
-0.00496294
-0.00495479
-0.00495382
-0.00495925
-0.00496979
-0.00498422
-0.00500158
-0.00502111
-0.00504228
-0.00506473
-0.00508824
-0.00511267
-0.00513798
-0.00516409
-0.00519106
-0.00521873
-0.00524732
-0.00527648
-0.00530667
-0.00533722
-0.00536902
-0.00540086
-0.00543432
-0.00546735
-0.00550247
-0.00553671
-0.00557337
-0.00560906
-0.00564688
-0.00568458
-0.00572289
-0.00576335
-0.00580154
-0.00584505
-0.00588349
-0.00592885
-0.00596962
-0.00601406
-0.00605968
-0.00610154
-0.00615091
-0.00619289
-0.0062396
-0.00628471
-0.00632394
-0.00636278
-0.00639397
-0.0064083
-0.00640309
0.000738346
0.00101481
0.00129571
0.00132227
0.0014485
0.00171649
0.00175837
0.00149651
0.00102756
0.000414633
-0.000139059
-0.000471199
-0.000691344
-0.000998509
-0.00138711
-0.00165921
-0.00181608
-0.00209689
-0.00257369
-0.00310047
-0.0035721
-0.00402303
-0.00452895
-0.00509295
-0.00560658
-0.00595737
-0.00622773
-0.00652633
-0.0067016
-0.00662815
-0.00642248
-0.0061467
-0.00580805
-0.00553654
-0.00538484
-0.00528596
-0.0052713
-0.00535535
-0.00538347
-0.00527675
-0.00516905
-0.00515999
-0.00518127
-0.00515916
-0.00511573
-0.00508883
-0.00507269
-0.00505008
-0.00502161
-0.00499565
-0.00497577
-0.00496216
-0.00495516
-0.00495488
-0.00496054
-0.00497098
-0.00498514
-0.00500221
-0.0050215
-0.0050425
-0.00506483
-0.00508828
-0.00511267
-0.00513797
-0.00516406
-0.00519103
-0.0052187
-0.00524729
-0.00527646
-0.00530665
-0.0053372
-0.00536901
-0.00540084
-0.00543431
-0.00546734
-0.00550246
-0.00553671
-0.00557337
-0.00560906
-0.00564688
-0.00568458
-0.00572289
-0.00576335
-0.00580154
-0.00584505
-0.0058835
-0.00592885
-0.00596962
-0.00601408
-0.00605968
-0.00610159
-0.00615092
-0.00619299
-0.00623967
-0.00628489
-0.0063241
-0.00636311
-0.00639425
-0.00640888
-0.00640391
0.00067029
0.000871732
0.00115639
0.00129323
0.00142095
0.00161878
0.00162645
0.00133693
0.000896831
0.000365015
-0.00018392
-0.000550908
-0.000756495
-0.00103055
-0.00140928
-0.00170726
-0.00187032
-0.00210789
-0.00256996
-0.00310349
-0.00353032
-0.00393826
-0.00445637
-0.00501504
-0.00547762
-0.00580096
-0.00606986
-0.00634283
-0.00649989
-0.00646841
-0.00633761
-0.00611497
-0.00578969
-0.00550639
-0.00534713
-0.00525753
-0.00525013
-0.00532765
-0.00535289
-0.00525889
-0.00516542
-0.00515846
-0.00517476
-0.00514982
-0.00510624
-0.00507891
-0.00506228
-0.00504079
-0.00501515
-0.00499244
-0.00497512
-0.00496301
-0.00495657
-0.00495626
-0.00496165
-0.0049718
-0.00498574
-0.00500264
-0.0050218
-0.00504269
-0.00506494
-0.00508832
-0.00511267
-0.00513795
-0.00516403
-0.00519099
-0.00521867
-0.00524726
-0.00527643
-0.00530662
-0.00533718
-0.00536899
-0.00540083
-0.00543429
-0.00546733
-0.00550245
-0.0055367
-0.00557336
-0.00560905
-0.00564688
-0.00568458
-0.00572289
-0.00576335
-0.00580155
-0.00584505
-0.0058835
-0.00592886
-0.00596963
-0.00601411
-0.00605968
-0.00610164
-0.00615094
-0.0061931
-0.00623975
-0.00628509
-0.00632429
-0.00636346
-0.00639457
-0.00640944
-0.00640475
0.000529252
0.000708358
0.00107705
0.00137876
0.00144052
0.00142791
0.00139896
0.00118318
0.000782665
0.000291405
-0.00025176
-0.000655545
-0.000835087
-0.00102839
-0.00137814
-0.00173156
-0.00194058
-0.00214639
-0.00257409
-0.00309913
-0.00348432
-0.0038548
-0.00438435
-0.00493724
-0.00535587
-0.0056545
-0.00590687
-0.00614277
-0.00629892
-0.0063323
-0.00626552
-0.00605908
-0.00572494
-0.00543889
-0.00529573
-0.0052358
-0.00524778
-0.00532189
-0.00533846
-0.00524652
-0.00515774
-0.00514745
-0.00515705
-0.00513028
-0.00508975
-0.00506653
-0.00505356
-0.00503541
-0.00501241
-0.0049912
-0.0049745
-0.00496269
-0.00495657
-0.00495661
-0.00496226
-0.00497251
-0.0049864
-0.00500316
-0.00502216
-0.0050429
-0.00506504
-0.00508835
-0.00511265
-0.00513791
-0.00516398
-0.00519094
-0.00521862
-0.00524722
-0.00527639
-0.00530659
-0.00533715
-0.00536896
-0.00540081
-0.00543428
-0.00546732
-0.00550244
-0.00553669
-0.00557336
-0.00560905
-0.00564688
-0.00568457
-0.00572289
-0.00576335
-0.00580155
-0.00584506
-0.0058835
-0.00592887
-0.00596963
-0.00601414
-0.00605969
-0.00610171
-0.00615096
-0.00619322
-0.00623984
-0.00628531
-0.00632452
-0.00636381
-0.00639493
-0.00640997
-0.0064056
0.000361475
0.000652792
0.00111182
0.00143263
0.00136251
0.00116826
0.00114811
0.00104076
0.000646636
0.000159464
-0.000331085
-0.000717102
-0.000859541
-0.000987479
-0.00134759
-0.00178452
-0.00203843
-0.00219721
-0.00256671
-0.00308204
-0.00345406
-0.00379391
-0.00431129
-0.0048473
-0.00522473
-0.00549183
-0.00573003
-0.00595691
-0.00612808
-0.00619811
-0.00615286
-0.00595267
-0.00563739
-0.00538399
-0.00527456
-0.00524171
-0.00526006
-0.00531543
-0.00531054
-0.00521427
-0.0051315
-0.00512461
-0.00513595
-0.00511449
-0.00508086
-0.00506146
-0.00504873
-0.00502972
-0.00500661
-0.0049864
-0.00497138
-0.00496134
-0.00495658
-0.00495735
-0.00496321
-0.00497336
-0.00498705
-0.0050036
-0.00502242
-0.00504304
-0.00506509
-0.00508835
-0.00511262
-0.00513785
-0.00516391
-0.00519088
-0.00521856
-0.00524716
-0.00527634
-0.00530655
-0.00533712
-0.00536893
-0.00540078
-0.00543425
-0.0054673
-0.00550243
-0.00553668
-0.00557335
-0.00560904
-0.00564687
-0.00568457
-0.00572289
-0.00576335
-0.00580155
-0.00584506
-0.0058835
-0.00592888
-0.00596963
-0.00601417
-0.00605969
-0.00610179
-0.00615098
-0.00619336
-0.00623995
-0.00628553
-0.00632477
-0.00636418
-0.00639533
-0.00641049
-0.00640646
0.000310326
0.000704142
0.00111261
0.00128687
0.00116894
0.000969154
0.000945841
0.00087178
0.000473951
5.39548e-06
-0.000379128
-0.000699074
-0.000850774
-0.000999338
-0.00138575
-0.00184792
-0.00210802
-0.00224142
-0.00257065
-0.00307039
-0.00343162
-0.00373466
-0.00421898
-0.00473482
-0.00507942
-0.00531977
-0.00556488
-0.0058063
-0.00596928
-0.00602305
-0.00598807
-0.00583829
-0.00558744
-0.00537327
-0.00527232
-0.00523591
-0.00524279
-0.00527785
-0.00526057
-0.00517306
-0.00510899
-0.00511404
-0.00512853
-0.00510707
-0.00507226
-0.00505058
-0.00503641
-0.00501859
-0.00499876
-0.00498207
-0.0049696
-0.00496097
-0.00495682
-0.0049578
-0.00496369
-0.00497382
-0.00498745
-0.00500392
-0.00502264
-0.00504316
-0.00506513
-0.00508832
-0.00511256
-0.00513777
-0.00516383
-0.00519079
-0.00521848
-0.00524709
-0.00527628
-0.0053065
-0.00533707
-0.0053689
-0.00540075
-0.00543423
-0.00546728
-0.00550241
-0.00553666
-0.00557333
-0.00560903
-0.00564686
-0.00568456
-0.00572288
-0.00576335
-0.00580155
-0.00584507
-0.0058835
-0.0059289
-0.00596963
-0.00601421
-0.00605969
-0.00610187
-0.00615102
-0.0061935
-0.00624009
-0.00628576
-0.00632507
-0.00636455
-0.00639576
-0.00641101
-0.0064073
0.000366828
0.000727116
0.000975548
0.00101877
0.000972417
0.000847431
0.000737711
0.000632871
0.000303324
-0.000118359
-0.000415253
-0.000660222
-0.000858472
-0.00106668
-0.00144668
-0.00188725
-0.00214765
-0.00229177
-0.00260185
-0.00305349
-0.00338064
-0.00366855
-0.00413124
-0.00460747
-0.00491328
-0.00515411
-0.00543186
-0.0056756
-0.00579215
-0.005814
-0.00581929
-0.00576028
-0.00557616
-0.0053636
-0.00523174
-0.00518086
-0.00519351
-0.00523568
-0.00522662
-0.00515467
-0.00510395
-0.00510883
-0.00511424
-0.00508631
-0.00505175
-0.00503419
-0.00502479
-0.00501097