/*--------------------------------*- C++ -*----------------------------------*\
  =========                 |
  \\      /  F ield         | OpenFOAM: The Open Source CFD Toolbox
   \\    /   O peration     | Website:  https://openfoam.org
    \\  /    A nd           | Version:  6
     \\/     M anipulation  |
\*---------------------------------------------------------------------------*/
FoamFile
{
    version     2.0;
    format      ascii;
    class       surfaceScalarField;
    location    "0.2";
    object      phi;
}
// * * * * * * * * * * * * * * * * * * * * * * * * * * * * * * * * * * * * * //

dimensions      [0 3 -1 0 0 0 0];

internalField   nonuniform List<scalar> 
9440
(
3.88151e-06
3.15264e-08
3.88021e-06
-1.76636e-08
3.88775e-06
-9.00655e-08
3.87405e-06
-5.29069e-08
3.86781e-06
4.64792e-08
3.85741e-06
1.42714e-07
3.86489e-06
1.30845e-07
3.86836e-06
5.35579e-08
3.88306e-06
-3.90499e-08
3.8909e-06
-7.08182e-08
3.89463e-06
-1.4421e-07
3.89085e-06
-1.13622e-07
3.89245e-06
-6.44273e-08
3.88631e-06
-3.33605e-08
3.88568e-06
1.16529e-08
3.88103e-06
1.94606e-08
3.88812e-06
2.36616e-08
3.9042e-06
2.64582e-08
3.91461e-06
-1.20002e-08
3.39355e-08
3.83107e-06
4.18362e-06
3.37613e-08
4.1891e-06
-2.3143e-08
4.18821e-06
-8.91755e-08
4.18348e-06
-4.81689e-08
4.17395e-06
5.60042e-08
4.1742e-06
1.42464e-07
4.17612e-06
1.28931e-07
4.18323e-06
4.64393e-08
4.18743e-06
-4.32491e-08
4.19513e-06
-7.85127e-08
4.19119e-06
-1.40277e-07
4.18976e-06
-1.12187e-07
4.18784e-06
-6.25119e-08
4.1862e-06
-3.17192e-08
4.18402e-06
1.38314e-08
4.18244e-06
2.10474e-08
4.18554e-06
2.05585e-08
4.19523e-06
1.67693e-08
4.19294e-06
-9.70572e-09
9.89972e-08
4.12787e-06
4.51922e-06
3.45991e-08
4.52142e-06
-2.53433e-08
4.51894e-06
-8.66895e-08
4.51418e-06
-4.34102e-08
4.51164e-06
5.85463e-08
4.51353e-06
1.40573e-07
4.51942e-06
1.23042e-07
4.52259e-06
4.32717e-08
4.52301e-06
-4.36736e-08
4.52433e-06
-7.98307e-08
4.51752e-06
-1.33474e-07
4.51282e-06
-1.07487e-07
4.51085e-06
-6.05364e-08
4.50971e-06
-3.05827e-08
4.51026e-06
1.32818e-08
4.51051e-06
2.08044e-08
4.51602e-06
1.50419e-08
4.51961e-06
1.31796e-08
4.49304e-06
1.68613e-08
1.31201e-07
4.46084e-06
4.88264e-06
3.29083e-08
4.88162e-06
-2.43203e-08
4.87896e-06
-8.40295e-08
4.87348e-06
-3.79389e-08
4.8757e-06
5.63291e-08
4.87903e-06
1.37246e-07
4.88681e-06
1.15261e-07
4.88864e-06
4.14396e-08
4.88631e-06
-4.13465e-08
4.88485e-06
-7.83646e-08
4.87585e-06
-1.24471e-07
4.86968e-06
-1.01324e-07
4.8664e-06
-5.72497e-08
4.86604e-06
-3.02244e-08
4.86733e-06
1.1985e-08
4.86908e-06
1.90552e-08
4.87253e-06
1.1593e-08
4.86447e-06
2.12412e-08
4.83275e-06
4.8586e-08
1.37045e-07
4.8269e-06
5.27328e-06
3.02787e-08
5.27108e-06
-2.21194e-08
5.26833e-06
-8.12884e-08
5.26271e-06
-3.23113e-08
5.26664e-06
5.23956e-08
5.27095e-06
1.32941e-07
5.27891e-06
1.07293e-07
5.28088e-06
3.94746e-08
5.27721e-06
-3.76786e-08
5.2748e-06
-7.59502e-08
5.26517e-06
-1.1484e-07
5.2586e-06
-9.47527e-08
5.25427e-06
-5.29247e-08
5.25426e-06
-3.02167e-08
5.25579e-06
1.04579e-08
5.25744e-06
1.74091e-08
5.25516e-06
1.38663e-08
5.23724e-06
3.91685e-08
5.2126e-06
7.32236e-08
1.22798e-07
5.22684e-06
5.69438e-06
2.73563e-08
5.6917e-06
-1.94417e-08
5.68897e-06
-7.85563e-08
5.68346e-06
-2.68e-08
5.68753e-06
4.83235e-08
5.69289e-06
1.27588e-07
5.69999e-06
1.00191e-07
5.70269e-06
3.6775e-08
5.69866e-06
-3.3647e-08
5.69516e-06
-7.24563e-08
5.68589e-06
-1.0557e-07
5.67944e-06
-8.8305e-08
5.6745e-06
-4.79838e-08
5.67413e-06
-2.98411e-08
5.67575e-06
8.83989e-09
5.67533e-06
1.78237e-08
5.66648e-06
2.27182e-08
5.64641e-06
5.92401e-08
5.63116e-06
8.84669e-08
9.18586e-08
5.6621e-06
6.14898e-06
2.42471e-08
6.14585e-06
-1.63086e-08
6.14334e-06
-7.6048e-08
6.13811e-06
-2.15685e-08
6.14156e-06
4.48698e-08
6.14836e-06
1.2079e-07
6.15378e-06
9.47684e-08
6.15746e-06
3.30942e-08
6.15366e-06
-2.98431e-08
6.14864e-06
-6.74361e-08
6.1404e-06
-9.73355e-08
6.13405e-06
-8.19561e-08
6.12881e-06
-4.27448e-08
6.12731e-06
-2.83392e-08
6.1285e-06
7.65589e-09
6.12467e-06
2.16462e-08
6.11203e-06
3.53657e-08
6.09592e-06
7.53472e-08
6.0898e-06
9.45878e-08
5.06164e-08
6.13104e-06
6.63984e-06
2.09672e-08
6.63627e-06
-1.27342e-08
6.63403e-06
-7.38073e-08
6.62905e-06
-1.65948e-08
6.63167e-06
4.2253e-08
6.64009e-06
1.1237e-07
6.64373e-06
9.11277e-08
6.64826e-06
2.8568e-08
6.64506e-06
-2.66485e-08
6.63856e-06
-6.09376e-08
6.63099e-06
-8.97624e-08
6.62456e-06
-7.55268e-08
6.61953e-06
-3.77093e-08
6.61641e-06
-2.52218e-08
6.61623e-06
7.83647e-09
6.60925e-06
2.86199e-08
6.59642e-06
4.82e-08
6.5874e-06
8.43642e-08
6.59117e-06
9.08209e-08
1.17955e-08
6.62999e-06
7.16976e-06
1.76407e-08
7.16599e-06
-8.96306e-09
7.16362e-06
-7.14452e-08
7.15931e-06
-1.22791e-08
7.16118e-06
4.03845e-08
7.17074e-06
1.02804e-07
7.17329e-06
8.85812e-08
7.17787e-06
2.39861e-08
7.1753e-06
-2.40744e-08
7.16797e-06
-5.36097e-08
7.16038e-06
-8.21689e-08
7.15412e-06
-6.92755e-08
7.14934e-06
-3.29274e-08
7.14434e-06
-2.02218e-08
7.14205e-06
1.01251e-08
7.13357e-06
3.71029e-08
7.12331e-06
5.84631e-08
7.1224e-06
8.52757e-08
7.13598e-06
7.72399e-08
-1.27968e-08
7.16057e-06
7.74182e-06
1.4424e-08
7.73827e-06
-5.4146e-09
7.73519e-06
-6.83657e-08
7.73233e-06
-9.41549e-09
7.73311e-06
3.96067e-08
7.74295e-06
9.2956e-08
7.74588e-06
8.56604e-08
7.74931e-06
2.05514e-08
7.74729e-06
-2.20533e-08
7.74038e-06
-4.67008e-08
7.73225e-06
-7.40423e-08
7.72564e-06
-6.26659e-08
7.72059e-06
-2.78708e-08
7.71422e-06
-1.38551e-08
7.71008e-06
1.42696e-08
7.70201e-06
4.51722e-08
7.69581e-06
6.46628e-08
7.70238e-06
7.87027e-08
7.7207e-06
5.89241e-08
-2.0881e-08
7.72878e-06
8.35957e-06
1.13135e-08
8.35642e-06
-2.26643e-09
8.35211e-06
-6.40563e-08
8.35127e-06
-8.5765e-09
8.35061e-06
4.02699e-08
8.36037e-06
8.31953e-08
8.365e-06
8.10282e-08
8.36608e-06
1.94733e-08
8.36445e-06
-2.04247e-08
8.35887e-06
-4.11221e-08
8.34973e-06
-6.48933e-08
8.34197e-06
-5.49073e-08
8.33681e-06
-2.27127e-08
8.33016e-06
-7.20202e-09
8.32473e-06
1.96928e-08
8.31829e-06
5.1615e-08
8.3167e-06
6.62489e-08
8.32842e-06
6.69844e-08
8.34478e-06
4.25678e-08
-1.73977e-08
8.3413e-06
9.02657e-06
8.38724e-09
9.02388e-06
4.298e-10
9.01828e-06
-5.84554e-08
9.01949e-06
-9.79308e-09
9.01777e-06
4.19935e-08
9.02705e-06
7.3912e-08
9.0334e-06
7.46793e-08
9.03198e-06
2.08955e-08
9.0306e-06
-1.9044e-08
9.02653e-06
-3.70498e-08
9.01652e-06
-5.48916e-08
9.00763e-06
-4.60085e-08
9.00245e-06
-1.75352e-08
8.99566e-06
-4.18534e-10
8.98962e-06
2.57399e-08
8.98591e-06
5.5325e-08
8.98894e-06
6.32165e-08
9.00196e-06
5.3969e-08
9.01227e-06
3.22512e-08
-8.23347e-09
9.00311e-06
9.74656e-06
5.93272e-09
9.74482e-06
2.16243e-09
9.73797e-06
-5.15982e-08
9.74048e-06
-1.23072e-08
9.7388e-06
4.36718e-08
9.74674e-06
6.59711e-08
9.75416e-06
6.72585e-08
9.75186e-06
2.3199e-08
9.75029e-06
-1.7471e-08
9.74681e-06
-3.35741e-08
9.73649e-06
-4.4572e-08
9.72685e-06
-3.63671e-08
9.72109e-06
-1.17719e-08
9.71424e-06
6.43295e-09
9.70916e-06
3.08158e-08
9.70912e-06
5.53668e-08
9.71519e-06
5.71462e-08
9.72527e-06
4.38858e-08
9.72913e-06
2.83907e-08
2.00356e-09
9.7189e-06
1.05239e-05
4.11837e-09
1.05237e-05
2.36563e-09
1.05152e-05
-4.31403e-08
1.05181e-05
-1.52097e-08
1.05181e-05
4.36603e-08
1.05239e-05
6.02391e-08
1.05317e-05
5.94818e-08
1.05303e-05
2.45483e-08
1.05275e-05
-1.46352e-08
1.05232e-05
-2.93249e-08
1.05135e-05
-3.48608e-08
1.05041e-05
-2.69668e-08
1.04977e-05
-5.37658e-09
1.04913e-05
1.28633e-08
1.04883e-05
3.37999e-08
1.04911e-05
5.25226e-08
1.04973e-05
5.0979e-08
1.05029e-05
3.83282e-08
1.05026e-05
2.86278e-08
1.03654e-08
1.04943e-05
1.13633e-05
2.95196e-09
1.13646e-05
1.05563e-09
1.13547e-05
-3.31441e-08
1.13575e-05
-1.80542e-08
1.13603e-05
4.08954e-08
1.13632e-05
5.72988e-08
1.13704e-05
5.22752e-08
1.1371e-05
2.39906e-08
1.13666e-05
-1.0259e-08
1.13611e-05
-2.38732e-08
1.13529e-05
-2.66209e-08
1.13444e-05
-1.84787e-08
1.13375e-05
1.5721e-09
1.13314e-05
1.88948e-08
1.13301e-05
3.51192e-08
1.13344e-05
4.82704e-08
1.13393e-05
4.60731e-08
1.13415e-05
3.60809e-08
1.13397e-05
3.04923e-08
1.65485e-08
1.13335e-05
1.22698e-05
2.49635e-09
1.22724e-05
-1.5151e-09
1.22618e-05
-2.25964e-08
1.22638e-05
-2.00328e-08
1.2269e-05
3.56847e-08
1.22698e-05
5.65099e-08
1.22758e-05
4.62404e-08
1.22784e-05
2.14534e-08
1.22733e-05
-5.19456e-09
1.22666e-05
-1.71925e-08
1.22593e-05
-1.9251e-08
1.22514e-05
-1.06578e-08
1.22445e-05
8.54455e-09
1.22393e-05
2.40784e-08
1.22393e-05
3.51226e-08
1.22441e-05
4.343e-08
1.22477e-05
4.2475e-08
1.22476e-05
3.62069e-08
1.22448e-05
3.32401e-08
2.09986e-08
1.22404e-05
1.32486e-05
2.79279e-09
1.32523e-05
-5.15691e-09
1.32423e-05
-1.26138e-08
1.3242e-05
-1.97464e-08
1.32491e-05
2.86317e-08
1.32499e-05
5.56649e-08
1.32541e-05
4.20012e-08
1.32573e-05
1.83368e-08
1.32524e-05
-3.31526e-10
1.32448e-05
-9.55273e-09
1.32374e-05
-1.18768e-08
1.32304e-05
-3.69272e-09
1.32249e-05
1.40965e-08
1.32214e-05
2.75115e-08
1.32221e-05
3.4506e-08
1.32258e-05
3.96912e-08
1.32274e-05
4.08759e-08
1.32255e-05
3.81406e-08
1.32228e-05
3.58684e-08
2.2714e-08
1.32211e-05
1.43058e-05
3.711e-09
1.43101e-05
-9.43029e-09
1.43015e-05
-3.97343e-09
1.42982e-05
-1.64582e-08
1.43067e-05
2.01121e-08
1.43094e-05
5.29044e-08
1.43108e-05
4.06511e-08
1.43126e-05
1.6563e-08
1.43092e-05
3.07176e-09
1.43021e-05
-2.45928e-09
1.42946e-05
-4.3897e-09
1.42884e-05
2.48838e-09
1.42845e-05
1.79684e-08
1.42824e-05
2.96112e-08
1.42822e-05
3.47033e-08
1.42835e-05
3.84145e-08
1.42836e-05
4.07432e-08
1.42821e-05
3.96875e-08
1.42813e-05
3.66221e-08
2.14345e-08
1.42826e-05
1.54477e-05
5.01185e-09
1.54518e-05
-1.35747e-08
1.54453e-05
2.58998e-09
1.54394e-05
-1.05893e-08
1.54482e-05
1.12815e-08
1.54532e-05
4.79475e-08
1.54517e-05
4.21216e-08
1.54517e-05
1.65884e-08
1.54508e-05
4.00381e-09
1.54453e-05
2.98898e-09
1.54372e-05
3.75516e-09
1.54305e-05
9.1293e-09
1.54275e-05
2.10051e-08
1.54265e-05
3.06346e-08
1.54258e-05
3.53395e-08
1.54259e-05
3.83699e-08
1.54262e-05
4.04441e-08
1.54261e-05
3.98117e-08
1.54268e-05
3.58406e-08
1.91107e-08
1.54292e-05
1.6681e-05
6.43659e-09
1.66843e-05
-1.68389e-08
1.66804e-05
6.45726e-09
1.66729e-05
-3.03592e-09
1.66801e-05
4.09131e-09
1.6687e-05
4.10491e-08
1.66848e-05
4.42856e-08
1.66833e-05
1.81292e-08
1.66835e-05
3.77137e-09
1.66791e-05
7.34935e-09
1.66704e-05
1.25195e-08
1.66634e-05
1.61185e-08
1.66615e-05
2.28747e-08
1.66623e-05
2.98755e-08
1.66623e-05
3.52873e-08
1.66618e-05
3.88827e-08
1.66616e-05
4.06689e-08
1.66615e-05
3.99155e-08
1.66625e-05
3.48243e-08
1.70191e-08
1.66646e-05
1.80131e-05
7.71678e-09
1.8015e-05
-1.86857e-08
1.80139e-05
7.55616e-09
1.80057e-05
5.16804e-09
1.80098e-05
-3.09848e-11
1.80184e-05
3.24612e-08
1.80177e-05
4.49375e-08
1.80143e-05
2.15998e-08
1.80131e-05
4.94687e-09
1.80097e-05
1.07105e-08
1.80027e-05
1.95765e-08
1.79971e-05
2.17042e-08
1.79962e-05
2.37773e-08
1.79973e-05
2.87936e-08
1.79969e-05
3.56859e-08
1.7995e-05
4.07747e-08
1.79937e-05
4.19175e-08
1.79942e-05
3.94172e-08
1.79963e-05
3.27414e-08
1.45961e-08
1.79987e-05
1.94518e-05
8.60496e-09
1.94519e-05
-1.88201e-08
1.94531e-05
6.42168e-09
1.94455e-05
1.27592e-08
1.94462e-05
-7.80779e-10
1.94555e-05
2.32105e-08
1.9457e-05
4.33966e-08
1.94517e-05
2.69279e-08
1.94483e-05
8.29881e-09
1.94469e-05
1.21396e-08
1.94435e-05
2.30137e-08
1.94393e-05
2.59053e-08
1.94369e-05
2.61589e-08
1.94357e-05
2.99904e-08
1.94345e-05
3.68452e-08
1.94333e-05
4.19629e-08
1.9434e-05
4.12829e-08
1.94372e-05
3.62433e-08
1.94405e-05
2.936e-08
1.30162e-08
1.94421e-05
2.10055e-05
8.94045e-09
2.10039e-05
-1.72401e-08
2.10064e-05
3.92326e-09
2.10006e-05
1.85237e-08
2.09984e-05
1.41751e-09
2.10066e-05
1.50715e-08
2.10101e-05
3.9842e-08
2.10047e-05
3.23781e-08
2.10001e-05
1.28969e-08
2.1e-05
1.22031e-08
2.0999e-05
2.40006e-08
2.09948e-05
3.01456e-08
2.09901e-05
3.07956e-08
2.09877e-05
3.23873e-08
2.09885e-05
3.60766e-08
2.09912e-05
3.93091e-08
2.09947e-05
3.77868e-08
2.09981e-05
3.27625e-08
2.09995e-05
2.79622e-08
1.48764e-08
2.09977e-05
2.26832e-05
8.68502e-09
2.26802e-05
-1.42657e-08
2.26831e-05
1.02552e-09
2.26798e-05
2.17813e-08
2.26756e-05
5.68649e-09
2.26812e-05
9.45602e-09
2.26864e-05
3.46206e-08
2.26828e-05
3.59647e-08
2.26776e-05
1.81426e-08
2.26767e-05
1.31047e-08
2.26763e-05
2.44184e-08
2.26727e-05
3.36693e-08
2.26688e-05
3.47703e-08
2.2668e-05
3.31041e-08
2.26712e-05
3.29448e-08
2.26755e-05
3.49488e-08
2.26779e-05
3.53831e-08
2.26777e-05
3.30074e-08
2.26757e-05
2.99708e-08
1.82216e-08
2.26723e-05
2.44947e-05
7.91467e-09
2.44909e-05
-1.04484e-08
2.44933e-05
-1.39574e-09
2.44926e-05
2.25298e-08
2.44875e-05
1.07671e-08
2.44901e-05
6.80552e-09
2.44962e-05
2.85776e-08
2.44951e-05
3.70348e-08
2.44895e-05
2.37196e-08
2.44868e-05
1.58412e-08
2.44869e-05
2.43564e-08
2.44861e-05
3.44765e-08
2.44848e-05
3.60402e-08
2.44851e-05
3.27976e-08
2.44869e-05
3.11066e-08
2.44888e-05
3.31239e-08
2.44885e-05
3.56003e-08
2.44868e-05
3.47273e-08
2.44861e-05
3.07052e-08
1.77572e-08
2.44865e-05
2.64507e-05
6.78906e-09
2.64467e-05
-6.40912e-09
2.6448e-05
-2.74966e-09
2.64493e-05
2.12743e-08
2.64447e-05
1.53625e-08
2.64447e-05
6.81664e-09
2.64502e-05
2.30166e-08
2.64513e-05
3.59501e-08
2.64465e-05
2.8557e-08
2.64429e-05
1.94412e-08
2.64436e-05
2.36556e-08
2.64451e-05
3.29003e-08
2.64453e-05
3.59015e-08
2.64444e-05
3.37078e-08
2.64436e-05
3.19127e-08
2.64438e-05
3.2858e-08
2.64451e-05
3.43606e-08
2.64471e-05
3.26559e-08
2.64504e-05
2.74915e-08
1.50612e-08
2.6453e-05
2.85626e-05
5.50764e-09
2.85589e-05
-2.69288e-09
2.8559e-05
-2.84765e-09
2.85615e-05
1.87982e-08
2.85582e-05
1.85856e-08
2.85563e-05
8.72828e-09
2.85604e-05
1.8931e-08
2.85631e-05
3.32781e-08
2.85602e-05
3.14246e-08
2.85568e-05
2.28356e-08
2.85572e-05
2.32863e-08
2.85592e-05
3.09194e-08
2.85596e-05
3.55065e-08
2.85584e-05
3.48451e-08
2.8558e-05
3.22961e-08
2.85601e-05
3.0808e-08
2.85643e-05
3.01841e-08
2.85683e-05
2.85876e-08
2.85705e-05
2.5285e-08
1.57544e-08
2.85699e-05
3.08429e-05
4.25915e-09
3.08399e-05
3.2803e-10
3.08389e-05
-1.86768e-09
3.08418e-05
1.59299e-08
3.08403e-05
2.01159e-08
3.08375e-05
1.14946e-08
3.08399e-05
1.65641e-08
3.08434e-05
2.97315e-08
3.08428e-05
3.20537e-08
3.084e-05
2.56206e-08
3.08394e-05
2.38511e-08
3.08411e-05
2.92248e-08
3.08426e-05
3.40016e-08
3.08435e-05
3.39353e-08
3.08451e-05
3.0781e-08
3.08477e-05
2.81531e-08
3.08506e-05
2.73003e-08
3.08519e-05
2.72696e-08
3.08511e-05
2.61463e-08
1.77243e-08
3.08491e-05
3.33052e-05
3.18109e-09
3.3303e-05
2.49238e-09
3.33014e-05
-2.16514e-10
3.3304e-05
1.33126e-08
3.3304e-05
2.00872e-08
3.33014e-05
1.40907e-08
3.33024e-05
1.56121e-08
3.3306e-05
2.61396e-08
3.33071e-05
3.09496e-08
3.33054e-05
2.7333e-08
3.33046e-05
2.46226e-08
3.33064e-05
2.73908e-08
3.33093e-05
3.11373e-08
3.33116e-05
3.15637e-08
3.33131e-05
2.93558e-08
3.33139e-05
2.73553e-08
3.33144e-05
2.67857e-08
3.33151e-05
2.65976e-08
3.33163e-05
2.49201e-08
1.56727e-08
3.33183e-05
3.5964e-05
2.34142e-09
3.59626e-05
3.82477e-09
3.59608e-05
1.62909e-09
3.59628e-05
1.12718e-08
3.5964e-05
1.89017e-08
3.59623e-05
1.58252e-08
3.59624e-05
1.55091e-08
3.59655e-05
2.30349e-08
3.59678e-05
2.86546e-08
3.59677e-05
2.74643e-08
3.59675e-05
2.47749e-08
3.59693e-05
2.55518e-08
3.59723e-05
2.81886e-08
3.59745e-05
2.93205e-08
3.59755e-05
2.83579e-08
3.59763e-05
2.65559e-08
3.59782e-05
2.49185e-08
3.59817e-05
2.31202e-08
3.59859e-05
2.06844e-08
1.27825e-08
3.59888e-05
3.88351e-05
1.74189e-09
3.88344e-05
4.46679e-09
3.88328e-05
3.25586e-09
3.88342e-05
9.82554e-09
3.88361e-05
1.70351e-08
3.88355e-05
1.64133e-08
3.88354e-05
1.55924e-08
3.8838e-05
2.04585e-08
3.8841e-05
2.56199e-08
3.88424e-05
2.60772e-08
3.88431e-05
2.41463e-08
3.88447e-05
2.3953e-08
3.88472e-05
2.56193e-08
3.88498e-05
2.67465e-08
3.88522e-05
2.59994e-08
3.88548e-05
2.38728e-08
3.88582e-05
2.15915e-08
3.88615e-05
1.97398e-08
3.88638e-05
1.83922e-08
1.28448e-08
3.88638e-05
4.19354e-05
1.33552e-09
4.19353e-05
4.59802e-09
4.19342e-05
4.39311e-09
4.19352e-05
8.78821e-09
4.19374e-05
1.48669e-08
4.19379e-05
1.587e-08
4.19382e-05
1.52925e-08
4.19405e-05
1.81813e-08
4.19438e-05
2.2267e-08
4.19463e-05
2.36005e-08
4.19479e-05
2.26146e-08
4.19498e-05
2.20557e-08
4.19526e-05
2.27411e-08
4.19561e-05
2.3298e-08
4.19594e-05
2.26613e-08
4.19622e-05
2.10914e-08
4.19643e-05
1.95029e-08
4.19657e-05
1.83085e-08
4.19669e-05
1.71933e-08
1.16299e-08
4.19681e-05
4.52834e-05
1.05165e-09
4.52837e-05
4.37134e-09
4.52831e-05
4.9218e-09
4.5284e-05
7.89496e-09
4.52863e-05
1.2607e-08
4.52878e-05
1.43857e-08
4.52888e-05
1.42868e-08
4.52911e-05
1.59106e-08
4.52945e-05
1.87922e-08
4.52978e-05
2.03011e-08
4.53005e-05
1.99712e-08
4.53032e-05
1.9357e-08
4.53065e-05
1.94403e-08
4.531e-05
1.97558e-08
4.53131e-05
1.96024e-08
4.53154e-05
1.8766e-08
4.53174e-05
1.74738e-08
4.53199e-05
1.58652e-08
4.53231e-05
1.39365e-08
8.2254e-09
4.53265e-05
4.88988e-05
8.22515e-10
4.88993e-05
3.87827e-09
4.88994e-05
4.83107e-09
4.89004e-05
6.8967e-09
4.89027e-05
1.03122e-08
4.89049e-05
1.22122e-08
4.89067e-05
1.24974e-08
4.89092e-05
1.33763e-08
4.89128e-05
1.51627e-08
4.89168e-05
1.63729e-08
4.89204e-05
1.63596e-08
4.89238e-05
1.5894e-08
4.89275e-05
1.57973e-08
4.89312e-05
1.60189e-08
4.89348e-05
1.60215e-08
4.89381e-05
1.54248e-08
4.89414e-05
1.42614e-08
4.89445e-05
1.27646e-08
4.89472e-05
1.11571e-08
6.3285e-09
4.89491e-05
5.28029e-05
6.03335e-10
5.28037e-05
3.15032e-09
5.28043e-05
4.16737e-09
5.28056e-05
5.61015e-09
5.2808e-05
7.93351e-09
5.28106e-05
9.55461e-09
5.28131e-05
9.99702e-09
5.28161e-05
1.04302e-08
5.28199e-05
1.13499e-08
5.28242e-05
1.20714e-08
5.28285e-05
1.20745e-08
5.28327e-05
1.16639e-08
5.28371e-05
1.13851e-08
5.28418e-05
1.13707e-08
5.28464e-05
1.14048e-08
5.28505e-05
1.12726e-08
5.28539e-05
1.08928e-08
5.28565e-05
1.02219e-08
5.28585e-05
9.12761e-09
4.77292e-09
5.286e-05
5.70187e-05
3.81643e-10
5.70197e-05
2.18241e-09
5.70209e-05
3.00167e-09
5.70225e-05
3.93962e-09
5.70251e-05
5.38372e-09
5.70281e-05
6.53233e-09
5.70312e-05
6.91411e-09
5.70346e-05
7.05008e-09
5.70386e-05
7.35198e-09
5.70431e-05
7.56551e-09
5.70478e-05
7.3582e-09
5.70527e-05
6.81169e-09
5.70578e-05
6.27273e-09
5.70632e-05
5.97302e-09
5.70686e-05
5.94607e-09
5.70738e-05
6.10138e-09
5.70784e-05
6.31125e-09
5.70822e-05
6.3868e-09
5.70853e-05
6.07674e-09
3.41817e-09
5.70866e-05
6.15711e-05
1.75142e-10
6.15724e-05
9.6269e-10
6.15739e-05
1.41531e-09
6.1576e-05
1.8765e-09
6.15788e-05
2.60504e-09
6.15821e-05
3.21476e-09
6.15856e-05
3.37904e-09
6.15894e-05
3.27036e-09
6.15936e-05
3.15557e-09
6.15982e-05
2.95749e-09
6.16031e-05
2.50382e-09
6.16081e-05
1.77054e-09
6.16134e-05
9.38257e-10
6.16192e-05
1.8001e-10
6.16256e-05
-3.63729e-10
6.16322e-05
-5.88025e-10
6.16389e-05
-3.64185e-10
6.1645e-05
3.39001e-10
6.16497e-05
1.35578e-09
1.84801e-09
6.16513e-05
6.6487e-05
1.46389e-11
6.64884e-05
-5.14898e-10
6.64904e-05
-4.97322e-10
6.64927e-05
-5.09953e-10
6.64957e-05
-4.00672e-10
6.64993e-05
-3.41338e-10
6.65032e-05
-4.95981e-10
6.65073e-05
-8.41896e-10
6.65117e-05
-1.23119e-09
6.65163e-05
-1.69167e-09
6.65211e-05
-2.30448e-09
6.6526e-05
-3.14199e-09
6.65311e-05
-4.16089e-09
6.65366e-05
-5.32098e-09
6.65428e-05
-6.54306e-09
6.65499e-05
-7.70201e-09
6.65581e-05
-8.513e-09
6.6567e-05
-8.57334e-09
6.65758e-05
-7.46476e-09
-5.55359e-09
6.65832e-05
7.17953e-05
-7.46887e-11
7.1797e-05
-2.26952e-09
7.17991e-05
-2.63808e-09
7.18018e-05
-3.12201e-09
7.1805e-05
-3.5938e-09
7.18087e-05
-4.07707e-09
7.18128e-05
-4.61611e-09
7.18172e-05
-5.22002e-09
7.18218e-05
-5.81789e-09
7.18265e-05
-6.42403e-09
7.18313e-05
-7.08657e-09
7.1836e-05
-7.87643e-09
7.18407e-05
-8.82662e-09
7.18454e-05
-9.99473e-09
7.18503e-05
-1.14746e-08
7.1856e-05
-1.33942e-08
7.18633e-05
-1.58132e-08
7.18733e-05
-1.85507e-08
7.18867e-05
-2.09325e-08
-2.94848e-08
7.19107e-05
7.75274e-05
7.75294e-05
7.75317e-05
7.75345e-05
7.75379e-05
7.75418e-05
7.75462e-05
7.75508e-05
7.75557e-05
7.75606e-05
7.75656e-05
7.75704e-05
7.7575e-05
7.75793e-05
7.75833e-05
7.75871e-05
7.75912e-05
7.75974e-05
7.76099e-05
7.76617e-05
3.74581e-06
8.52618e-08
3.6674e-06
7.84126e-08
3.5778e-06
8.95997e-08
3.48456e-06
9.32357e-08
3.38903e-06
9.55328e-08
3.29172e-06
9.73134e-08
3.19293e-06
9.87904e-08
3.09157e-06
1.01355e-07
2.98727e-06
1.04297e-07
2.87921e-06
1.08067e-07
2.76679e-06
1.12413e-07
2.65142e-06
1.15375e-07
2.5354e-06
1.16017e-07
2.42177e-06
1.13634e-07
2.31005e-06
1.11723e-07
2.19575e-06
1.14298e-07
2.07824e-06
1.17509e-07
1.95811e-06
1.20131e-07
1.8363e-06
1.21808e-07
1.71778e-06
1.18521e-07
1.60215e-06
1.15624e-07
1.48709e-06
1.1506e-07
1.37784e-06
1.09256e-07
1.27841e-06
9.94256e-08
1.19068e-06
8.7728e-08
1.11975e-06
7.09381e-08
1.06763e-06
5.21191e-08
1.0319e-06
3.57289e-08
1.01012e-06
2.17783e-08
9.99167e-07
1.09533e-08
9.96066e-07
3.10153e-09
9.99159e-07
-3.09297e-09
1.00536e-06
-6.19806e-09
1.01103e-06
-5.67476e-09
1.01468e-06
-3.64916e-09
1.01498e-06
-2.95949e-10
1.01091e-06
4.06495e-09
1.0054e-06
5.50818e-09
1.00293e-06
2.47554e-09
1.00367e-06
-7.43299e-10
1.0045e-06
-8.25856e-10
1.00409e-06
4.05974e-10
1.00363e-06
4.56111e-10
1.00398e-06
-3.43801e-10
1.00476e-06
-7.77716e-10
1.00554e-06
-7.8791e-10
1.00638e-06
-8.39818e-10
1.00737e-06
-9.8707e-10
1.00841e-06
-1.04049e-09
1.00936e-06
-9.49043e-10
1.01014e-06
-7.83619e-10
1.01075e-06
-6.03526e-10
1.01118e-06
-4.34716e-10
1.01148e-06
-2.93395e-10
1.01166e-06
-1.88538e-10
1.01178e-06
-1.18217e-10
1.01186e-06
-7.42729e-11
1.01191e-06
-4.81555e-11
1.01194e-06
-3.34069e-11
1.01196e-06
-2.51703e-11
1.01198e-06
-2.0604e-11
1.012e-06
-1.74893e-11
1.01202e-06
-1.55144e-11
1.01203e-06
-1.3333e-11
1.01204e-06
-1.22679e-11
1.01205e-06
-9.89002e-12
1.01206e-06
-9.7312e-12
1.01207e-06
-6.47989e-12
1.01208e-06
-8.16775e-12
1.01208e-06
-3.14644e-12
1.01209e-06
-8.15826e-12
1.01209e-06
7.58842e-13
1.0121e-06
-9.81993e-12
1.01209e-06
6.00177e-12
1.01211e-06
-1.355e-11
1.01209e-06
1.24892e-11
1.01211e-06
-1.89669e-11
1.01209e-06
1.92e-11
1.01212e-06
-2.35405e-11
1.01209e-06
2.26024e-11
1.01212e-06
-2.21442e-11
1.0121e-06
1.64474e-11
1.01211e-06
-8.09776e-12
1.01211e-06
-4.52506e-12
1.01209e-06
2.06443e-11
1.01213e-06
-3.60573e-11
1.01208e-06
5.20489e-11
1.01213e-06
-5.68861e-11
1.01207e-06
5.98935e-11
1.01211e-06
-3.96374e-11
1.01208e-06
3.08006e-11
1.01207e-06
1.26019e-11
1.01206e-06
5.86279e-12
1.01201e-06
5.0839e-11
1.01195e-06
6.58821e-11
1.01188e-06
6.08244e-11
1.01164e-06
2.40391e-10
1.01152e-06
1.28259e-10
1.01096e-06
5.56427e-10
1.84287e-09
4.14169e-06
7.14417e-08
4.15906e-06
6.10491e-08
4.16254e-06
8.61189e-08
4.15764e-06
9.81339e-08
4.14849e-06
1.0468e-07
4.13692e-06
1.08886e-07
4.12355e-06
1.12164e-07
4.1073e-06
1.17604e-07
4.08808e-06
1.23518e-07
4.06522e-06
1.3092e-07
4.03763e-06
1.40008e-07
4.00589e-06
1.47111e-07
3.97024e-06
1.51667e-07
3.93204e-06
1.51834e-07
3.89162e-06
1.5215e-07
3.84729e-06
1.5862e-07
3.80002e-06
1.64784e-07
3.74893e-06
1.71223e-07
3.69312e-06
1.77615e-07
3.63554e-06
1.76098e-07
3.57469e-06
1.76479e-07
3.50876e-06
1.80989e-07
3.44129e-06
1.76725e-07
3.37388e-06
1.66837e-07
3.30758e-06
1.54026e-07
3.2457e-06
1.3282e-07
3.19041e-06
1.07408e-07
3.14275e-06
8.3391e-08
3.10202e-06
6.25014e-08
3.0664e-06
4.6573e-08
3.03619e-06
3.33111e-08
3.01164e-06
2.14635e-08
2.99036e-06
1.50749e-08
2.97088e-06
1.38075e-08
2.95329e-06
1.39421e-08
2.93593e-06
1.70636e-08
2.91715e-06
2.28448e-08
2.899e-06
2.36548e-08
2.88454e-06
1.69406e-08
2.87362e-06
1.01739e-08
2.86434e-06
8.45349e-09
2.85616e-06
8.58917e-09
2.84968e-06
6.9354e-09
2.84504e-06
4.29443e-09
2.8419e-06
2.36301e-09
2.84021e-06
9.01538e-10
2.84022e-06
-8.45621e-10
2.84195e-06
-2.71617e-09
2.84502e-06
-4.11501e-09
2.84883e-06
-4.75945e-09
2.85276e-06
-4.71304e-09
2.85633e-06
-4.16945e-09
2.85925e-06
-3.35545e-09
2.86144e-06
-2.48695e-09
2.86297e-06
-1.7179e-09
2.86397e-06
-1.11863e-09
2.86459e-06
-6.94644e-10
2.86496e-06
-4.17464e-10
2.86518e-06
-2.48377e-10
2.8653e-06
-1.50856e-10
2.86538e-06
-9.70897e-11
2.86543e-06
-6.74456e-11
2.86546e-06
-5.12058e-11
2.86549e-06
-4.06796e-11
2.86551e-06
-3.45981e-11
2.86553e-06
-2.81373e-11
2.86555e-06
-2.54155e-11
2.86556e-06
-1.8908e-11
2.86557e-06
-1.95077e-11
2.86558e-06
-1.11766e-11
2.86559e-06
-1.69012e-11
2.86559e-06
-3.57664e-12
2.8656e-06
-1.73748e-11
2.8656e-06
5.35146e-12
2.86561e-06
-2.1389e-11
2.8656e-06
1.57126e-11
2.86561e-06
-2.84987e-11
2.86561e-06
2.65309e-11
2.86562e-06
-3.5379e-11
2.86561e-06
3.3432e-11
2.86562e-06
-3.5195e-11
2.86561e-06
2.79387e-11
2.86562e-06
-1.80748e-11
2.86561e-06
1.15646e-12
2.86561e-06
2.25428e-11
2.86562e-06
-4.708e-11
2.8656e-06
7.89273e-11
2.86564e-06
-9.69963e-11
2.86557e-06
1.22368e-10
2.86564e-06
-1.08158e-10
2.86555e-06
1.1776e-10
2.86561e-06
-4.7395e-11
2.86554e-06
8.2143e-11
2.86554e-06
4.99658e-11
2.86545e-06
1.55957e-10
2.8654e-06
1.10186e-10
2.86517e-06
4.69571e-10
2.865e-06
3.02376e-10
2.86463e-06
9.2316e-10
3.19849e-09
4.47838e-06
5.39018e-08
4.4952e-06
4.42305e-08
4.50566e-06
7.56571e-08
4.50839e-06
9.54099e-08
4.50827e-06
1.04797e-07
4.50777e-06
1.09382e-07
4.50746e-06
1.1248e-07
4.5074e-06
1.1766e-07
4.50757e-06
1.23346e-07
4.50736e-06
1.31132e-07
4.50581e-06
1.41563e-07
4.50296e-06
1.49953e-07
4.49852e-06
1.56112e-07
4.49217e-06
1.58181e-07
4.48425e-06
1.60072e-07
4.47512e-06
1.67753e-07
4.46585e-06
1.74056e-07
4.45597e-06
1.81103e-07
4.44424e-06
1.89345e-07
4.43156e-06
1.88779e-07
4.41731e-06
1.90723e-07
4.40009e-06
1.98206e-07
4.38123e-06
1.95589e-07
4.36105e-06
1.87022e-07
4.33866e-06
1.76411e-07
4.31516e-06
1.56316e-07
4.29248e-06
1.30089e-07
4.27197e-06
1.03907e-07
4.2536e-06
8.08724e-08
4.23636e-06
6.38102e-08
4.22035e-06
4.93187e-08
4.20605e-06
3.57648e-08
4.19273e-06
2.83985e-08
4.18e-06
2.65329e-08
4.16831e-06
2.56367e-08
4.15699e-06
2.83768e-08
4.14508e-06
3.4759e-08
4.13337e-06
3.53644e-08
4.12326e-06
2.70471e-08
4.11469e-06
1.87498e-08
4.10686e-06
1.62818e-08
4.09973e-06
1.5716e-08
4.09369e-06
1.29754e-08
4.08879e-06
9.19767e-09
4.08488e-06
6.27013e-09
4.08203e-06
3.75293e-09
4.08041e-06
7.77125e-10
4.08004e-06
-2.34795e-09
4.08077e-06
-4.84343e-09
4.08237e-06
-6.35894e-09
4.08462e-06
-6.96603e-09
4.08732e-06
-6.86518e-09
4.09023e-06
-6.26754e-09
4.09312e-06
-5.37335e-09
4.09575e-06
-4.3517e-09
4.09796e-06
-3.33221e-09
4.09968e-06
-2.40988e-09
4.10091e-06
-1.64578e-09
4.10172e-06
-1.06449e-09
4.10223e-06
-6.56844e-10
4.10252e-06
-3.92256e-10
4.10269e-06
-2.31525e-10
4.10278e-06
-1.39803e-10
4.10282e-06
-8.86329e-11
4.10285e-06
-6.14837e-11
4.10287e-06
-4.44974e-11
4.10288e-06
-3.59737e-11
4.10289e-06
-2.657e-11
4.10289e-06
-2.47287e-11
4.1029e-06
-1.56286e-11
4.1029e-06
-1.94331e-11
4.1029e-06
-6.57254e-12
4.1029e-06
-1.79775e-11
4.1029e-06
2.90741e-12
4.1029e-06
-2.0382e-11
4.10291e-06
1.31262e-11
4.1029e-06
-2.61401e-11
4.10291e-06
2.35676e-11
4.1029e-06
-3.21586e-11
4.10291e-06
3.05701e-11
4.1029e-06
-3.21539e-11
4.1029e-06
2.61339e-11
4.1029e-06
-1.58386e-11
4.1029e-06
-2.48875e-13
4.1029e-06
2.72802e-11
4.10291e-06
-5.48465e-11
4.10289e-06
9.75345e-11
4.10292e-06
-1.24527e-10
4.10287e-06
1.67913e-10
4.10292e-06
-1.57952e-10
4.10286e-06
1.79817e-10
4.10289e-06
-8.43712e-11
4.10285e-06
1.23666e-10
4.10283e-06
7.07623e-11
4.1028e-06
1.89922e-10
4.10272e-06
1.84021e-10
4.10263e-06
5.66518e-10
4.10242e-06
5.13914e-10
4.10229e-06
1.04573e-09
3.80069e-09
4.84432e-06
3.64849e-08
4.85567e-06
3.28832e-08
4.86609e-06
6.52305e-08
4.86937e-06
9.21296e-08
4.8697e-06
1.04473e-07
4.8697e-06
1.09383e-07
4.86971e-06
1.12462e-07
4.87068e-06
1.16695e-07
4.8727e-06
1.21324e-07
4.87521e-06
1.28618e-07
4.87764e-06
1.39138e-07
4.87976e-06
1.47827e-07
4.88152e-06
1.54354e-07
4.88221e-06
1.57489e-07
4.88182e-06
1.60462e-07
4.88162e-06
1.67958e-07
4.88213e-06
1.7354e-07
4.88296e-06
1.80278e-07
4.88378e-06
1.88522e-07
4.88459e-06
1.87974e-07
4.8852e-06
1.90105e-07
4.88519e-06
1.98223e-07
4.88484e-06
1.9594e-07
4.88406e-06
1.878e-07
4.88142e-06
1.79048e-07
4.87656e-06
1.61181e-07
4.87072e-06
1.35931e-07
4.86495e-06
1.0967e-07
4.85947e-06
8.63502e-08
4.85402e-06
6.92608e-08
4.84846e-06
5.48835e-08
4.84289e-06
4.13317e-08
4.83742e-06
3.38746e-08
4.83221e-06
3.1737e-08
4.82758e-06
3.02726e-08
4.82347e-06
3.24833e-08
4.81955e-06
3.86793e-08
4.81571e-06
3.92027e-08
4.81208e-06
3.06763e-08
4.80868e-06
2.2156e-08
4.80546e-06
1.94948e-08
4.80253e-06
1.8645e-08
4.79998e-06
1.55275e-08
4.79779e-06
1.1384e-08
4.79595e-06
8.11464e-09
4.79449e-06
5.21625e-09
4.79346e-06
1.80656e-09
4.79287e-06
-1.75746e-09
4.79268e-06
-4.65643e-09
4.79286e-06
-6.53727e-09
4.79338e-06
-7.48684e-09
4.79422e-06
-7.70832e-09
4.79534e-06
-7.38769e-09
4.79665e-06
-6.68068e-09
4.79802e-06
-5.71854e-09
4.79931e-06
-4.62369e-09
4.80042e-06
-3.51969e-09
4.80129e-06
-2.51822e-09
4.80192e-06
-1.6953e-09
4.80234e-06
-1.07845e-09
4.8026e-06
-6.53753e-10
4.80276e-06
-3.8244e-10
4.80284e-06
-2.20657e-10
4.80288e-06
-1.28547e-10
4.80289e-06
-7.88019e-11
4.8029e-06
-5.04236e-11
4.8029e-06
-3.59179e-11
4.8029e-06
-2.43431e-11
4.80289e-06
-2.0688e-11
4.80289e-06
-1.22198e-11
4.80288e-06
-1.44868e-11
4.80288e-06
-3.94206e-12
4.80288e-06
-1.24708e-11
4.80288e-06
3.83545e-12
4.80287e-06
-1.38353e-11
4.80287e-06
1.14811e-11
4.80286e-06
-1.77385e-11
4.80287e-06
1.85564e-11
4.80286e-06
-2.11494e-11
4.80286e-06
2.18894e-11
4.80285e-06
-1.8497e-11
4.80286e-06
1.45041e-11
4.80285e-06
-5.24441e-13
4.80286e-06
-1.32517e-11
4.80284e-06
4.31529e-11
4.80286e-06
-6.83523e-11
4.80284e-06
1.14571e-10
4.80286e-06
-1.39017e-10
4.80284e-06
1.86866e-10
4.80285e-06
-1.69702e-10
4.80283e-06
1.94515e-10
4.80283e-06
-7.84979e-11
4.80283e-06
1.24812e-10
4.80279e-06
1.09116e-10
4.80279e-06
1.90516e-10
4.80271e-06
2.65093e-10
4.80269e-06
5.81958e-10
4.80248e-06
7.21325e-10
4.80249e-06
1.03979e-09
3.96213e-09
5.24061e-06
2.27181e-08
5.24542e-06
2.80741e-08
5.25379e-06
5.6861e-08
5.25776e-06
8.81593e-08
5.25904e-06
1.03198e-07
5.25964e-06
1.08783e-07
5.25972e-06
1.12377e-07
5.26042e-06
1.15992e-07
5.26211e-06
1.19635e-07
5.26452e-06
1.26211e-07
5.26732e-06
1.36336e-07
5.27017e-06
1.44978e-07
5.27295e-06
1.5158e-07
5.27497e-06
1.5547e-07
5.27615e-06
1.59274e-07
5.27787e-06
1.6624e-07
5.28021e-06
1.71199e-07
5.28274e-06
1.77751e-07
5.28587e-06
1.85395e-07
5.2891e-06
1.84744e-07
5.29218e-06
1.87025e-07
5.29562e-06
1.94783e-07
5.29942e-06
1.92138e-07
5.30313e-06
1.84086e-07
5.30573e-06
1.76453e-07
5.30649e-06
1.60419e-07
5.30587e-06
1.36552e-07
5.30457e-06
1.10974e-07
5.30299e-06
8.79244e-08