/*--------------------------------*- C++ -*----------------------------------*\
  =========                 |
  \\      /  F ield         | OpenFOAM: The Open Source CFD Toolbox
   \\    /   O peration     | Website:  https://openfoam.org
    \\  /    A nd           | Version:  6
     \\/     M anipulation  |
\*---------------------------------------------------------------------------*/
FoamFile
{
    version     2.0;
    format      ascii;
    class       volVectorField;
    location    "0.2";
    object      U;
}
// * * * * * * * * * * * * * * * * * * * * * * * * * * * * * * * * * * * * * //

dimensions      [0 1 -1 0 0 0 0];

internalField   nonuniform List<vector> 
4800
(
(0.95991 0.000311463 0)
(1.03913 -9.59024e-05 0)
(0.965941 -0.00104782 0)
(1.03675 -0.00073368 0)
(0.965758 0.000503977 0)
(1.02675 0.00209186 0)
(0.965753 0.00222948 0)
(1.02492 0.00100917 0)
(0.973712 -0.000496721 0)
(1.02768 -0.00140457 0)
(0.981016 -0.00330825 0)
(1.02571 -0.00291521 0)
(0.983296 -0.00168077 0)
(1.02275 -0.00118893 0)
(0.983035 0.000294292 0)
(1.01793 0.000649138 0)
(0.983156 0.00109257 0)
(1.01378 0.00163967 0)
(0.983939 0.00119918 0)
(1.01054 0.00170983 0)
(0.982355 0.000361484 0)
(1.015 -0.000290301 0)
(0.987811 -0.0010921 0)
(1.01214 -0.000695073 0)
(0.988404 0.000778295 0)
(1.0049 0.00224179 0)
(0.989835 0.00221925 0)
(1.0042 0.000882869 0)
(0.995386 -0.000886468 0)
(1.0055 -0.00169032 0)
(0.998472 -0.00347937 0)
(1.00334 -0.00289056 0)
(0.998606 -0.00176793 0)
(1.00219 -0.000970455 0)
(0.997702 0.000511984 0)
(0.999972 0.000737586 0)
(0.997459 0.00122422 0)
(0.998487 0.00175152 0)
(0.997353 0.00115157 0)
(0.997519 0.00204694 0)
(0.995805 0.000366544 0)
(1.00327 -0.000344938 0)
(0.997744 -0.000983928 0)
(1.00139 -0.000637182 0)
(0.99694 0.000870535 0)
(0.99885 0.00210737 0)
(0.997989 0.00209483 0)
(1.00091 0.000826028 0)
(1.00062 -0.000960698 0)
(1.00126 -0.00157615 0)
(0.999855 -0.00316174 0)
(0.998519 -0.00280382 0)
(0.998034 -0.00174642 0)
(0.997947 -0.000675369 0)
(0.996858 0.000431803 0)
(0.997188 0.00089125 0)
(0.997148 0.00102342 0)
(0.997246 0.00145868 0)
(0.997474 0.00127232 0)
(0.997261 0.00188058 0)
(0.999434 0.000326127 0)
(1.00093 -0.000251943 0)
(0.99965 -0.00100748 0)
(0.999258 -0.000562177 0)
(0.998528 0.000869996 0)
(0.998818 0.00213207 0)
(1.00005 0.0020744 0)
(1.00163 0.000836603 0)
(1.00179 -0.000913954 0)
(1.00112 -0.00158172 0)
(0.999662 -0.00308752 0)
(0.997698 -0.00274056 0)
(0.997249 -0.00165247 0)
(0.996959 -0.000842855 0)
(0.996111 0.000505643 0)
(0.996502 0.00099153 0)
(0.996825 0.000686637 0)
(0.997141 0.00147335 0)
(0.997595 0.00124641 0)
(0.99741 0.00165431 0)
(1.00001 0.000289154 0)
(1.00067 -0.000195198 0)
(0.999819 -0.00102396 0)
(0.999011 -0.000374132 0)
(0.998811 0.000776737 0)
(0.999141 0.00208717 0)
(1.00056 0.00180785 0)
(1.00198 0.000743931 0)
(1.00205 -0.00084957 0)
(1.00118 -0.00170759 0)
(0.999639 -0.00272458 0)
(0.997636 -0.0024305 0)
(0.997125 -0.00164993 0)
(0.996886 -0.00087892 0)
(0.996056 0.000673687 0)
(0.996349 0.000830872 0)
(0.996843 0.000745511 0)
(0.997221 0.0014904 0)
(0.997676 0.00093227 0)
(0.997585 0.00141337 0)
(1.00008 0.000312791 0)
(1.00063 -0.000239433 0)
(0.999816 -0.000986524 0)
(0.999027 -0.000346471 0)
(0.998923 0.000592901 0)
(0.999268 0.0020483 0)
(1.00063 0.0016594 0)
(1.00198 0.000766266 0)
(1.002 -0.000666108 0)
(1.00113 -0.00167528 0)
(0.999606 -0.00244224 0)
(0.997663 -0.00238277 0)
(0.99721 -0.00145797 0)
(0.997048 -0.000872849 0)
(0.996163 0.000457153 0)
(0.996366 0.000777445 0)
(0.996932 0.00103973 0)
(0.997229 0.00133559 0)
(0.997708 0.000851562 0)
(0.997794 0.00140561 0)
(1.00009 0.000290794 0)
(1.00059 -0.000296381 0)
(0.999816 -0.000869774 0)
(0.999087 -0.000317035 0)
(0.999033 0.000637161 0)
(0.999329 0.00204759 0)
(1.00057 0.00152111 0)
(1.00187 0.000676858 0)
(1.00187 -0.000562272 0)
(1.00102 -0.00167824 0)
(0.999568 -0.0023689 0)
(0.997772 -0.00207743 0)
(0.997334 -0.00111194 0)
(0.997189 -0.0010361 0)
(0.99634 0.000284944 0)
(0.99647 0.00100009 0)
(0.996985 0.00113762 0)
(0.99721 0.00122789 0)
(0.997755 0.00116608 0)
(0.997955 0.00145094 0)
(1.00008 0.000189805 0)
(1.00056 -0.000135894 0)
(0.999818 -0.00079106 0)
(0.99915 -0.000300438 0)
(0.999129 0.000637137 0)
(0.999357 0.00179908 0)
(1.0005 0.0014269 0)
(1.00176 0.000607444 0)
(1.00173 -0.00047902 0)
(1.00091 -0.0014865 0)
(0.999565 -0.00216628 0)
(0.997878 -0.0018407 0)
(0.997388 -0.00110615 0)
(0.99733 -0.000983887 0)
(0.996586 0.000342966 0)
(0.996567 0.00100343 0)
(0.997007 0.000962053 0)
(0.997262 0.00138292 0)
(0.9978 0.00163985 0)
(0.998018 0.00153652 0)
(1.00009 0.000179825 0)
(1.00052 -2.21242e-05 0)
(0.999804 -0.000967324 0)
(0.999215 -0.000230679 0)
(0.999225 0.00062043 0)
(0.999403 0.00160911 0)
(1.00044 0.00155777 0)
(1.00164 0.000472613 0)
(1.0016 -0.000488562 0)
(1.00079 -0.00122521 0)
(0.999524 -0.00207836 0)
(0.997969 -0.00186815 0)
(0.997503 -0.000934822 0)
(0.997514 -0.00053687 0)
(0.996785 0.000294068 0)
(0.996633 0.000761601 0)
(0.997114 0.000974506 0)
(0.997425 0.00179589 0)
(0.997818 0.00206111 0)
(0.998052 0.00176588 0)
(1.00009 0.000195761 0)
(1.00047 -0.000133787 0)
(0.999807 -0.00095202 0)
(0.999302 3.21442e-05 0)
(0.999312 0.000552633 0)
(0.999453 0.00143791 0)
(1.00035 0.00157608 0)
(1.00149 0.000236665 0)
(1.00149 -0.000460872 0)
(1.00067 -0.000930946 0)
(0.999473 -0.00190103 0)
(0.998111 -0.00174415 0)
(0.99767 -0.000668623 0)
(0.99762 -0.000351623 0)
(0.996906 0.000117106 0)
(0.996767 0.00074649 0)
(0.997328 0.00121783 0)
(0.99761 0.00196378 0)
(0.997802 0.00225154 0)
(0.998116 0.00217681 0)
(1.00009 0.000124951 0)
(1.00042 -0.000100873 0)
(0.999826 -0.000696404 0)
(0.999361 -1.31729e-05 0)
(0.999374 0.000372492 0)
(0.999514 0.00134783 0)
(1.00027 0.0015354 0)
(1.00136 0.000210734 0)
(1.00142 -0.00036981 0)
(1.00056 -0.000771078 0)
(0.999396 -0.00170496 0)
(0.998236 -0.00163441 0)
(0.997816 -0.000660424 0)
(0.99772 -0.000293127 0)
(0.997092 0.000288676 0)
(0.996964 0.00104275 0)
(0.997507 0.00134606 0)
(0.997784 0.00184046 0)
(0.997916 0.00250693 0)
(0.998296 0.0029128 0)
(1.00008 7.54316e-05 0)
(1.00038 5.35508e-05 0)
(0.999812 -0.000700569 0)
(0.999407 -0.000251292 0)
(0.999468 0.000553403 0)
(0.999587 0.00134723 0)
(1.00018 0.0013361 0)
(1.0012 0.000250614 0)
(1.00133 -0.000403961 0)
(1.00044 -0.000786459 0)
(0.999326 -0.00143202 0)
(0.99836 -0.00135305 0)
(0.997999 -0.000551434 0)
(0.997888 -0.000107692 0)
(0.997302 0.000500027 0)
(0.9971 0.00116744 0)
(0.997615 0.00137936 0)
(0.998054 0.00190203 0)
(0.998245 0.00282476 0)
(0.998482 0.00339363 0)
(1.00008 7.54153e-05 0)
(1.00033 5.51666e-05 0)
(0.999787 -0.000771347 0)
(0.999499 -0.000163023 0)
(0.999565 0.000818451 0)
(0.999601 0.00100665 0)
(1.00009 0.00102349 0)
(1.00107 0.000453152 0)
(1.00124 -0.00034216 0)
(1.00036 -0.000762656 0)
(0.999299 -0.00107748 0)
(0.998463 -0.00099703 0)
(0.998147 -0.000508812 0)
(0.998033 -0.000155413 0)
(0.997497 0.00047658 0)
(0.99727 0.00128945 0)
(0.9978 0.001732 0)
(0.998373 0.00222601 0)
(0.998559 0.00281917 0)
(0.998575 0.00325254 0)
(1.00008 5.42177e-05 0)
(1.00027 1.07329e-05 0)
(0.99978 -0.000602389 0)
(0.999594 -7.07229e-05 0)
(0.999605 0.000670377 0)
(0.999598 0.000700338 0)
(1.00007 0.00107084 0)
(1.00095 0.000730103 0)
(1.0011 -0.000361898 0)
(1.00029 -0.000854163 0)
(0.999289 -0.000874831 0)
(0.99852 -0.00074489 0)
(0.998248 -0.000451918 0)
(0.998208 -0.000108495 0)
(0.997801 0.000659509 0)
(0.997567 0.00164 0)
(0.998001 0.00210722 0)
(0.998528 0.00229508 0)
(0.998728 0.00253585 0)
(0.998745 0.00296968 0)
(1.00007 2.54264e-05 0)
(1.00023 3.32157e-05 0)
(0.999762 -0.000415712 0)
(0.99965 -0.000237747 0)
(0.999652 0.00051798 0)
(0.999648 0.000871511 0)
(1.00007 0.00111896 0)
(1.00077 0.000536369 0)
(1.00091 -0.000495369 0)
(1.00026 -0.000754714 0)
(0.999341 -0.000579548 0)
(0.998596 -0.00044461 0)
(0.998358 -0.000214629 0)
(0.998419 0.000123337 0)
(0.998137 0.000824062 0)
(0.997836 0.00167761 0)
(0.99809 0.00203181 0)
(0.998592 0.00214409 0)
(0.998921 0.00246615 0)
(0.999042 0.00291122 0)
(1.00007 1.99426e-05 0)
(1.00019 3.1885e-05 0)
(0.999721 -0.000327545 0)
(0.999707 -0.00035016 0)
(0.999752 0.000591748 0)
(0.999674 0.00102168 0)
(0.999976 0.000757238 0)
(1.0006 0.00022258 0)
(1.00081 -0.000191179 0)
(1.00028 -0.000294578 0)
(0.999382 -0.000404433 0)
(0.998643 -0.000432566 0)
(0.998451 -0.000106499 0)
(0.998594 0.000321879 0)
(0.99841 0.00086188 0)
(0.998078 0.00152887 0)
(0.998236 0.00197754 0)
(0.998777 0.0022632 0)
(0.999165 0.00262357 0)
(0.999228 0.00285786 0)
(1.00006 2.45762e-05 0)
(1.00016 -2.1718e-05 0)
(0.99968 -0.000213588 0)
(0.99977 -0.000303435 0)
(0.999851 0.000549553 0)
(0.999638 0.000890298 0)
(0.999874 0.000507006 0)
(1.00055 0.000324673 0)
(1.00078 0.000248634 0)
(1.0002 -0.000152713 0)
(0.999306 -0.000633826 0)
(0.998709 -0.000535169 0)
(0.998641 0.000166741 0)
(0.998806 0.000757125 0)
(0.998653 0.00108518 0)
(0.998352 0.00149718 0)
(0.998473 0.00196789 0)
(0.99896 0.00228449 0)
(0.999281 0.0024835 0)
(0.99923 0.00257721 0)
(1.00005 3.0381e-05 0)
(1.00013 -7.82858e-05 0)
(0.999646 -6.81018e-05 0)
(0.999807 -0.00025312 0)
(0.999931 0.000333587 0)
(0.999622 0.000809789 0)
(0.999822 0.000638852 0)
(1.00052 0.000434517 0)
(1.00067 0.000173487 0)
(1.00002 -0.00031508 0)
(0.999277 -0.000568701 0)
(0.998941 -0.000136934 0)
(0.998948 0.000648018 0)
(0.99898 0.00105406 0)
(0.998757 0.00108561 0)
(0.998523 0.0012702 0)
(0.998668 0.00169676 0)
(0.999091 0.00205781 0)
(0.999369 0.00226564 0)
(0.999241 0.00239171 0)
(1.00004 4.2144e-05 0)
(1.00012 -0.000126582 0)
(0.999617 3.49137e-05 0)
(0.999811 -0.000208515 0)
(1.00002 0.000157405 0)
(0.999658 0.000833873 0)
(0.999747 0.000770516 0)
(1.0004 0.000258241 0)
(1.00055 -7.60508e-05 0)
(0.999967 -0.000118949 0)
(0.999383 1.88166e-05 0)
(0.999169 0.000295092 0)
(0.999119 0.000605229 0)
(0.999004 0.000755661 0)
(0.99878 0.000880271 0)
(0.998697 0.00123393 0)
(0.998941 0.0017303 0)
(0.999332 0.00210551 0)
(0.999529 0.00226943 0)
(0.999274 0.00231399 0)
(1.00003 5.85635e-05 0)
(1.00012 -0.000173323 0)
(0.999598 8.77026e-05 0)
(0.999796 -0.000107749 0)
(1.00012 5.89761e-05 0)
(0.999714 0.000754706 0)
(0.999627 0.000755267 0)
(1.00025 0.000156938 0)
(1.00054 -3.39655e-05 0)
(1.00005 0.000256656 0)
(0.999426 0.000376918 0)
(0.99917 0.000222656 0)
(0.99915 0.000231112 0)
(0.999129 0.000587662 0)
(0.999035 0.00117402 0)
(0.999026 0.0017176 0)
(0.999214 0.00201475 0)
(0.999459 0.00204955 0)
(0.999534 0.00193918 0)
(0.999263 0.00194738 0)
(1.00002 7.41643e-05 0)
(1.00012 -0.000208577 0)
(0.999599 0.000108762 0)
(0.999768 2.59901e-05 0)
(1.00018 -1.77843e-05 0)
(0.999782 0.000567187 0)
(0.999531 0.000755749 0)
(1.00013 0.000299359 0)
(1.00056 8.56315e-05 0)
(1.0001 0.000293059 0)
(0.999356 0.000335161 0)
(0.99911 0.000184568 0)
(0.999309 0.000351947 0)
(0.999508 0.000938398 0)
(0.999422 0.00158472 0)
(0.999209 0.00186194 0)
(0.999158 0.00174798 0)
(0.999286 0.00153387 0)
(0.999473 0.00145784 0)
(0.999481 0.00174325 0)
(1 8.59141e-05 0)
(1.00012 -0.00022175 0)
(0.999623 9.97994e-05 0)
(0.999731 0.000145422 0)
(1.00021 -5.60245e-05 0)
(0.999877 0.000386143 0)
(0.999496 0.000781915 0)
(0.999995 0.000472745 0)
(1.00051 7.9919e-05 0)
(1.00012 0.000139671 0)
(0.999372 0.000379812 0)
(0.999189 0.000545067 0)
(0.999545 0.000772259 0)
(0.999809 0.0010898 0)
(0.999578 0.00134812 0)
(0.999127 0.00140406 0)
(0.998994 0.00134385 0)
(0.999267 0.00142422 0)
(0.999751 0.00171493 0)
(1.00005 0.00214504 0)
(0.999995 9.22876e-05 0)
(1.00012 -0.000212179 0)
(0.999665 6.5456e-05 0)
(0.999695 0.000235164 0)
(1.00021 -2.95261e-05 0)
(0.999987 0.00024395 0)
(0.999508 0.000734493 0)
(0.999841 0.000568057 0)
(1.00041 0.000106143 0)
(1.00021 0.00012577 0)
(0.999534 0.000558603 0)
(0.999304 0.000857514 0)
(0.999601 0.000886931 0)
(0.999841 0.000841949 0)
(0.999624 0.000931617 0)
(0.999221 0.00122802 0)
(0.999207 0.00159172 0)
(0.999629 0.00195058 0)
(1.00015 0.00224322 0)
(1.00041 0.00232259 0)
(0.999987 9.22457e-05 0)
(1.00012 -0.000183815 0)
(0.999721 2.13589e-05 0)
(0.999673 0.000290991 0)
(1.00018 4.15341e-05 0)
(1.00008 0.000133959 0)
(0.999561 0.000616234 0)
(0.999715 0.000636608 0)
(1.00031 0.000254876 0)
(1.00031 0.0002083 0)
(0.999717 0.000593754 0)
(0.99935 0.000864856 0)
(0.999528 0.000834706 0)
(0.999844 0.000778583 0)
(0.999865 0.000984408 0)
(0.999648 0.00148696 0)
(0.999604 0.0019426 0)
(0.99985 0.00210913 0)
(1.0001 0.0020422 0)
(1.0002 0.00181073 0)
(0.999983 8.60055e-05 0)
(1.00011 -0.000142348 0)
(0.999785 -1.75164e-05 0)
(0.999672 0.000308662 0)
(1.00013 0.000124847 0)
(1.00015 7.1631e-05 0)
(0.999654 0.000488722 0)
(0.999652 0.000682644 0)
(1.0002 0.000422718 0)
(1.00036 0.000264728 0)
(0.999865 0.000503937 0)
(0.999429 0.000810199 0)
(0.999545 0.000939405 0)
(0.999955 0.00100654 0)
(1.00017 0.00119054 0)
(1 0.00150128 0)
(0.999743 0.00172087 0)
(0.999708 0.00169593 0)
(0.999824 0.00157077 0)
(1.00001 0.00153325 0)
(0.999981 7.51141e-05 0)
(1.0001 -9.52296e-05 0)
(0.999849 -4.24441e-05 0)
(0.999693 0.00029272 0)
(1.00008 0.000200474 0)
(1.00019 6.54664e-05 0)
(0.999772 0.000380513 0)
(0.999647 0.000670674 0)
(1.00008 0.000535433 0)
(1.00034 0.000328523 0)
(1.00002 0.000468564 0)
(0.999611 0.000825249 0)
(0.999657 0.00107031 0)
(1.00003 0.00113955 0)
(1.00026 0.00115356 0)
(1.0001 0.0012231 0)
(0.999778 0.00136702 0)
(0.999698 0.00150448 0)
(0.999936 0.00164342 0)
(1.00029 0.00185482 0)
(0.999981 6.17539e-05 0)
(1.00008 -4.99926e-05 0)
(0.999906 -5.00318e-05 0)
(0.999733 0.000256181 0)
(1.00002 0.000255749 0)
(1.0002 9.88211e-05 0)
(0.999888 0.000298504 0)
(0.999689 0.000610106 0)
(0.999991 0.000602415 0)
(1.00031 0.000432961 0)
(1.00016 0.000502086 0)
(0.999821 0.000809856 0)
(0.999762 0.0010501 0)
(1.00001 0.00109988 0)
(1.00023 0.00106352 0)
(1.0002 0.00112019 0)
(1.00004 0.00134812 0)
(1.00003 0.0016395 0)
(1.00026 0.00184476 0)
(1.00051 0.00194189 0)
(0.999983 4.81059e-05 0)
(1.00007 -1.21405e-05 0)
(0.999951 -4.16115e-05 0)
(0.999786 0.000212811 0)
(0.999986 0.000283579 0)
(1.00019 0.000148205 0)
(0.999987 0.000250387 0)
(0.99977 0.000536105 0)
(0.999953 0.000631308 0)
(1.00026 0.000531127 0)
(1.00026 0.000536307 0)
(0.999993 0.000743216 0)
(0.99987 0.000963625 0)
(1.00003 0.00106781 0)
(1.00028 0.00110236 0)
(1.0004 0.0011968 0)
(1.00036 0.00137918 0)
(1.00029 0.00156565 0)
(1.00031 0.00163416 0)
(1.00038 0.00159456 0)
(0.999986 3.5905e-05 0)
(1.00005 1.56358e-05 0)
(0.999983 -2.23035e-05 0)
(0.999844 0.000172768 0)
(0.999969 0.000285382 0)
(1.00016 0.000196058 0)
(1.00006 0.000235119 0)
(0.999872 0.000467965 0)
(0.99996 0.00061762 0)
(1.00022 0.000584985 0)
(1.0003 0.000562165 0)
(1.00014 0.000696509 0)
(1.00002 0.000905704 0)
(1.00013 0.00105706 0)
(1.00036 0.00112774 0)
(1.0005 0.00117376 0)
(1.00047 0.00123186 0)
(1.00034 0.00130725 0)
(1.00029 0.00137324 0)
(1.00036 0.0014318 0)
(0.99999 2.6151e-05 0)
(1.00003 3.31764e-05 0)
(1 1.33252e-06 0)
(0.9999 0.000141624 0)
(0.999971 0.000268538 0)
(1.00014 0.000230659 0)
(1.00011 0.000239521 0)
(0.999973 0.000411285 0)
(1 0.00057314 0)
(1.0002 0.000598632 0)
(1.00033 0.000587485 0)
(1.00027 0.000677877 0)
(1.00019 0.000847544 0)
(1.00024 0.000989371 0)
(1.00039 0.0010539 0)
(1.0005 0.00107127 0)
(1.00051 0.00111071 0)
(1.00048 0.00120602 0)
(1.0005 0.00134631 0)
(1.00063 0.00148028 0)
(0.999993 1.90592e-05 0)
(1.00002 4.20298e-05 0)
(1.00002 2.35487e-05 0)
(0.999949 0.00012048 0)
(0.999987 0.000241419 0)
(1.00012 0.00024612 0)
(1.00015 0.000248502 0)
(1.00006 0.000367498 0)
(1.00007 0.000516332 0)
(1.00021 0.000581102 0)
(1.00035 0.000593253 0)
(1.00036 0.000651123 0)
(1.00032 0.000769886 0)
(1.00033 0.000889257 0)
(1.00044 0.000965768 0)
(1.00056 0.00101558 0)
(1.00065 0.00108325 0)
(1.00069 0.0011771 0)
(1.00072 0.00127868 0)
(1.00077 0.00134417 0)
(0.999995 1.42538e-05 0)
(1.00002 4.43968e-05 0)
(1.00002 4.03994e-05 0)
(0.999989 0.000107039 0)
(1.00001 0.000210727 0)
(1.00012 0.000242942 0)
(1.00017 0.000251549 0)
(1.00014 0.000332524 0)
(1.00014 0.000455481 0)
(1.00024 0.000535519 0)
(1.00037 0.000566167 0)
(1.00043 0.000608176 0)
(1.00042 0.000694316 0)
(1.00044 0.00079847 0)
(1.00053 0.000886711 0)
(1.00065 0.000950913 0)
(1.00074 0.00100197 0)
(1.00077 0.00104784 0)
(1.00077 0.00109048 0)
(1.00077 0.00112719 0)
(0.999997 1.10596e-05 0)
(1.00001 4.23294e-05 0)
(1.00003 4.97985e-05 0)
(1.00002 9.71523e-05 0)
(1.00004 0.000180163 0)
(1.00012 0.000225332 0)
(1.00018 0.000243271 0)
(1.00019 0.000299293 0)
(1.00021 0.000392644 0)
(1.00029 0.000469784 0)
(1.0004 0.000511692 0)
(1.00048 0.000550464 0)
(1.00052 0.000615293 0)
(1.00055 0.000697432 0)
(1.00062 0.000772907 0)
(1.00071 0.000826484 0)
(1.00078 0.000865751 0)
(1.00082 0.000905974 0)
(1.00086 0.000957298 0)
(1.00091 0.00102013 0)
(0.999998 8.75217e-06 0)
(1.00001 3.73986e-05 0)
(1.00003 5.13927e-05 0)
(1.00004 8.65227e-05 0)
(1.00007 0.000149901 0)
(1.00013 0.000197043 0)
(1.0002 0.000221852 0)
(1.00023 0.000262502 0)
(1.00027 0.000329268 0)
(1.00033 0.000393604 0)
(1.00043 0.000436764 0)
(1.00052 0.000471148 0)
(1.00058 0.00051633 0)
(1.00064 0.000573833 0)
(1.0007 0.000632188 0)
(1.00078 0.000683282 0)
(1.00086 0.000730844 0)
(1.00093 0.000780495 0)
(1.00099 0.0008335 0)
(1.00104 0.000883619 0)
(0.999999 6.77642e-06 0)
(1.00001 3.06581e-05 0)
(1.00004 4.62293e-05 0)
(1.00006 7.24513e-05 0)
(1.00009 0.000118419 0)
(1.00015 0.000160055 0)
(1.00021 0.00018684 0)
(1.00026 0.000217736 0)
(1.00031 0.000263509 0)
(1.00038 0.000311189 0)
(1.00046 0.000346748 0)
(1.00056 0.000373051 0)
(1.00063 0.000402245 0)
(1.0007 0.000439737 0)
(1.00078 0.000482166 0)
(1.00086 0.000524396 0)
(1.00094 0.000563968 0)
(1.00101 0.000601748 0)
(1.00106 0.00063858 0)
(1.0011 0.000674957 0)
(0.999999 4.8837e-06 0)
(1.00001 2.29578e-05 0)
(1.00004 3.62686e-05 0)
(1.00007 5.46303e-05 0)
(1.00011 8.53339e-05 0)
(1.00016 0.000116785 0)
(1.00023 0.000139874 0)
(1.00028 0.000162317 0)
(1.00034 0.000191568 0)
(1.00041 0.000222621 0)
(1.00049 0.000246789 0)
(1.00058 0.000263463 0)
(1.00066 0.000278804 0)
(1.00074 0.000297414 0)
(1.00082 0.000319092 0)
(1.00091 0.000341285 0)
(1.00099 0.000363396 0)
(1.00107 0.000387518 0)
(1.00114 0.000416151 0)
(1.0012 0.000450343 0)
(0.999999 3.06664e-06 0)
(1.00001 1.52459e-05 0)
(1.00004 2.42366e-05 0)
(1.00008 3.51516e-05 0)
(1.00012 5.28259e-05 0)
(1.00017 7.22051e-05 0)
(1.00023 8.73064e-05 0)
(1.0003 0.000100381 0)
(1.00036 0.000115722 0)
(1.00042 0.00013162 0)
(1.0005 0.000143421 0)
(1.00058 0.000149235 0)
(1.00067 0.000151599 0)
(1.00075 0.000153324 0)
(1.00084 0.000155733 0)
(1.00093 0.000158752 0)
(1.00102 0.000163282 0)
(1.00112 0.000170728 0)
(1.0012 0.000183123 0)
(1.00128 0.000201211 0)
(0.999999 1.50681e-06 0)
(1.00001 8.43788e-06 0)
(1.00004 1.2996e-05 0)
(1.00008 1.76999e-05 0)
(1.00013 2.55068e-05 0)
(1.00018 3.41326e-05 0)
(1.00024 4.04526e-05 0)
(1.0003 4.444e-05 0)
(1.00036 4.85892e-05 0)
(1.00043 5.22315e-05 0)
(1.0005 5.34103e-05 0)
(1.00057 5.00853e-05 0)
(1.00065 4.33086e-05 0)
(1.00073 3.40566e-05 0)
(1.00082 2.37848e-05 0)
(1.00091 1.24097e-05 0)
(1.001 9.89289e-07 0)
(1.00111 -9.41045e-06 0)
(1.00121 -1.59395e-05 0)
(1.00132 -1.62275e-05 0)
(0.999999 4.22527e-07 0)
(1.00001 3.43716e-06 0)
(1.00004 4.82282e-06 0)
(1.00008 5.6069e-06 0)
(1.00013 7.61346e-06 0)
(1.00018 9.73981e-06 0)
(1.00024 1.06239e-05 0)
(1.0003 9.505e-06 0)
(1.00036 7.69391e-06 0)
(1.00042 5.05453e-06 0)
(1.00049 1.13606e-06 0)
(1.00055 -5.3135e-06 0)
(1.00063 -1.41011e-05 0)
(1.0007 -2.50949e-05 0)
(1.00078 -3.7645e-05 0)
(1.00086 -5.17485e-05 0)
(1.00095 -6.68077e-05 0)
(1.00106 -8.19924e-05 0)
(1.00117 -9.55063e-05 0)
(1.0013 -0.000105192 0)
(0.999999 8.7613e-09 0)
(1.00001 7.56298e-07 0)
(1.00004 8.74512e-07 0)
(1.00008 6.12705e-07 0)
(1.00013 6.91241e-07 0)
(1.00018 8.07928e-07 0)
(1.00023 5.57422e-07 0)
(1.00029 -4.9167e-07 0)
(1.00035 -2.01148e-06 0)
(1.00041 -3.92013e-06 0)
(1.00048 -6.24463e-06 0)
(1.00054 -9.26361e-06 0)
(1.00061 -1.30856e-05 0)
(1.00068 -1.7619e-05 0)
(1.00075 -2.28383e-05 0)
(1.00083 -2.85874e-05 0)
(1.00091 -3.49321e-05 0)
(1.00101 -4.1522e-05 0)
(1.00113 -4.80766e-05 0)
(1.00126 -5.36097e-05 0)
(0.984547 0.000892057 0)
(0.958705 0.000776838 0)
(0.933326 0.00108111 0)
(0.909055 0.00130533 0)
(0.885521 0.00150415 0)
(0.861418 0.00163845 0)
(0.8363 0.00177115 0)
(0.810523 0.0019988 0)
(0.784327 0.00224414 0)
(0.757276 0.00244569 0)
(0.728728 0.00260718 0)
(0.698927 0.00275142 0)
(0.66872 0.00273195 0)
(0.63898 0.00247351 0)
(0.610373 0.00237797 0)
(0.581534 0.0026011 0)
(0.551317 0.00267177 0)
(0.520566 0.00258901 0)
(0.489198 0.00255945 0)
(0.458045 0.00245961 0)
(0.427907 0.00242138 0)
(0.397954 0.00237612 0)
(0.368816 0.00215003 0)
(0.341556 0.00196887 0)
(0.316933 0.00171927 0)
(0.296496 0.00109066 0)
(0.281087 0.000282254 0)
(0.2702 -0.000397973 0)
(0.263027 -0.000909105 0)
(0.258897 -0.00124901 0)
(0.25718 -0.00138145 0)
(0.257257 -0.00130462 0)
(0.258472 -0.00102244 0)
(0.260055 -0.00059998 0)
(0.261325 -0.000215099 0)
(0.261813 -2.05711e-05 0)
(0.261282 -1.18107e-05 0)
(0.260063 -7.68334e-05 0)
(0.259048 -0.000115133 0)
(0.258793 -9.78145e-05 0)
(0.258979 -5.74451e-05 0)
(0.259056 -3.36307e-05 0)
(0.258965 -3.03502e-05 0)
(0.258946 -2.84258e-05 0)
(0.259084 -1.83667e-05 0)
(0.25929 -5.45409e-06 0)
(0.259508 4.42252e-06 0)
(0.259749 1.05059e-05 0)
(0.260014 1.34645e-05 0)
(0.260273 1.33809e-05 0)
(0.260499 1.08201e-05 0)
(0.260677 7.16081e-06 0)
(0.26081 3.72745e-06 0)
(0.260902 1.20915e-06 0)
(0.260962 -2.75646e-07 0)
(0.261 -9.19925e-07 0)
(0.261024 -1.02639e-06 0)
(0.261039 -8.735e-07 0)
(0.26105 -6.49895e-07 0)
(0.261057 -4.47192e-07 0)
(0.261063 -2.97666e-07 0)
(0.261067 -1.9728e-07 0)
(0.261072 -1.3807e-07 0)
(0.261075 -9.90121e-08 0)
(0.261079 -7.99899e-08 0)
(0.261081 -5.79257e-08 0)
(0.261084 -5.49946e-08 0)
(0.261086 -3.3177e-08 0)
(0.261088 -4.62192e-08 0)
(0.261089 -1.43088e-08 0)
(0.261092 -4.78308e-08 0)
(0.261091 9.76404e-09 0)
(0.261095 -5.79648e-08 0)
(0.261091 4.11904e-08 0)
(0.261098 -8.14499e-08 0)
(0.26109 7.89934e-08 0)
(0.261101 -1.14089e-07 0)
(0.261088 1.18787e-07 0)
(0.261106 -1.42119e-07 0)
(0.261084 1.41047e-07 0)
(0.261111 -1.39134e-07 0)
(0.26108 1.14103e-07 0)
(0.261115 -7.11549e-08 0)
(0.261077 1.28051e-08 0)
(0.261116 6.95301e-08 0)
(0.261078 -1.36584e-07 0)
(0.261113 2.16019e-07 0)
(0.261081 -2.17008e-07 0)
(0.261108 2.29971e-07 0)
(0.261082 -8.72835e-08 0)
(0.261106 6.58066e-08 0)
(0.261073 2.00776e-07 0)
(0.261108 1.80001e-08 0)
(0.261047 3.35121e-07 0)
(0.261106 6.0009e-07 0)
(0.260992 2.13616e-07 0)
(0.261082 2.16145e-06 0)
(0.260846 -1.08674e-07 0)
(0.261044 4.63901e-06 0)
(0.260356 1.20935e-05 0)
(0.996978 0.00058039 0)
(0.99504 0.000912199 0)
(0.993071 0.0023017 0)
(0.991728 0.0034258 0)
(0.990827 0.00426376 0)
(0.98924 0.00476262 0)
(0.98661 0.00499862 0)
(0.983298 0.0052486 0)
(0.979347 0.00545834 0)
(0.974655 0.00558513 0)
(0.968516 0.0057377 0)
(0.961086 0.00591145 0)
(0.952815 0.00598844 0)
(0.94389 0.00586021 0)
(0.93488 0.00574917 0)
(0.924827 0.0058556 0)
(0.913528 0.00596435 0)
(0.901831 0.00611482 0)
(0.889024 0.0063072 0)
(0.875471 0.0062302 0)
(0.861314 0.00612617 0)
(0.845947 0.0061573 0)
(0.830051 0.00600049 0)
(0.813651 0.00572326 0)
(0.797296 0.00538813 0)
(0.78224 0.00474629 0)
(0.768538 0.00385674 0)
(0.756474 0.00296818 0)
(0.746146 0.00218071 0)
(0.736876 0.00152602 0)
(0.728834 0.000982745 0)
(0.722318 0.000542775 0)
(0.716728 0.000263219 0)
(0.711726 0.000117335 0)
(0.707362 5.40894e-05 0)
(0.703235 0.000131509 0)
(0.698926 0.000303652 0)
(0.694658 0.000343713 0)
(0.690865 0.000184149 0)
(0.687719 2.05501e-05 0)
(0.685181 -1.14441e-05 0)
(0.68314 1.36761e-05 0)
(0.681485 1.07032e-06 0)
(0.68017 -3.88924e-05 0)
(0.679206 -6.60224e-05 0)
(0.678615 -7.84496e-05 0)
(0.678423 -8.83766e-05 0)
(0.678647 -9.38391e-05 0)
(0.679247 -8.78091e-05 0)
(0.680105 -7.0929e-05 0)
(0.681064 -4.93946e-05 0)
(0.681983 -2.89344e-05 0)
(0.682767 -1.28576e-05 0)
(0.683377 -2.35986e-06 0)
(0.683815 3.01422e-06 0)
(0.684109 4.7145e-06 0)
(0.684294 4.36264e-06 0)
(0.684405 3.20662e-06 0)
(0.68447 1.97553e-06 0)
(0.684508 9.958e-07 0)
(0.68453 3.33473e-07 0)
(0.684544 -4.86973e-08 0)
(0.684554 -2.4753e-07 0)
(0.684561 -3.15422e-07 0)
(0.684567 -3.39556e-07 0)
(0.684572 -2.98669e-07 0)
(0.684577 -2.90765e-07 0)
(0.684579 -2.0935e-07 0)
(0.684583 -2.32873e-07 0)
(0.684583 -1.15994e-07 0)
(0.684589 -2.09405e-07 0)
(0.684584 -1.96523e-08 0)
(0.684595 -2.23508e-07 0)
(0.684582 9.42127e-08 0)
(0.684603 -2.7943e-07 0)
(0.684577 2.2229e-07 0)
(0.684613 -3.67028e-07 0)
(0.684567 3.46281e-07 0)
(0.684627 -4.3875e-07 0)
(0.684552 4.07369e-07 0)
(0.684644 -4.09906e-07 0)
(0.684537 3.09093e-07 0)
(0.684658 -1.81328e-07 0)
(0.684527 -1.72407e-08 0)
(0.684661 2.63827e-07 0)
(0.684531 -4.93808e-07 0)
(0.68465 7.46608e-07 0)
(0.684545 -8.31985e-07 0)
(0.684635 9.46196e-07 0)
(0.68455 -7.2206e-07 0)
(0.684641 7.50619e-07 0)
(0.684519 -2.09873e-07 0)
(0.684676 6.20895e-07 0)
(0.68446 2.58367e-07 0)
(0.684702 1.47526e-06 0)
(0.684389 4.89022e-07 0)
(0.68469 3.83345e-06 0)
(0.684241 2.21636e-06 0)
(0.68464 4.71159e-06 0)
(0.683888 2.44781e-05 0)
(0.996989 0.000661209 0)
(0.995999 0.00133023 0)
(0.99509 0.00318852 0)
(0.995128 0.00459153 0)
(0.995935 0.00546362 0)
(0.996669 0.00583711 0)
(0.996905 0.00585328 0)
(0.997117 0.00593081 0)
(0.997465 0.00604113 0)
(0.997736 0.00624998 0)
(0.997501 0.00661421 0)
(0.996722 0.00691654 0)
(0.995727 0.00717406 0)
(0.994545 0.00719911 0)
(0.993222 0.00707418 0)
(0.991349 0.00723181 0)
(0.988948 0.00741488 0)
(0.986778 0.00757844 0)
(0.984589 0.00777094 0)
(0.981894 0.00761944 0)
(0.978712 0.00754897 0)
(0.975205 0.00774533 0)
(0.971341 0.00764991 0)
(0.966798 0.00739035 0)
(0.961947 0.00706032 0)
(0.957128 0.00634141 0)
(0.95224 0.00537041 0)
(0.947719 0.00438947 0)
(0.943584 0.00349812 0)
(0.939461 0.00281121 0)
(0.935641 0.0022205 0)
(0.932224 0.00162997 0)
(0.928924 0.00120464 0)
(0.9259 0.000971793 0)
(0.923244 0.000823115 0)
(0.920658 0.000846549 0)
(0.918113 0.00103583 0)
(0.915773 0.00107809 0)
(0.913514 0.000839425 0)
(0.91126 0.00057371 0)
(0.90926 0.000474822 0)
(0.907661 0.000448154 0)
(0.906317 0.000371338 0)
(0.905106 0.000265845 0)
(0.904083 0.000185376 0)
(0.903324 0.000122702 0)
(0.902844 5.22731e-05 0)
(0.902633 -2.38568e-05 0)
(0.902678 -8.83737e-05 0)
(0.902945 -0.000130673 0)
(0.903383 -0.000149323 0)
(0.903943 -0.000147402 0)
(0.904577 -0.000130557 0)
(0.905233 -0.000105798 0)
(0.905856 -7.94941e-05 0)
(0.906399 -5.59387e-05 0)
(0.906835 -3.7174e-05 0)
(0.907158 -2.35366e-05 0)
(0.907379 -1.43638e-05 0)
(0.907519 -8.58115e-06 0)
(0.907602 -5.12808e-06 0)
(0.907649 -3.13481e-06 0)
(0.907675 -2.01763e-06 0)
(0.907688 -1.37191e-06 0)
(0.907696 -1.01235e-06 0)
(0.9077 -7.55911e-07 0)
(0.907704 -6.2476e-07 0)
(0.907704 -4.57729e-07 0)
(0.907708 -4.31426e-07 0)
(0.907705 -2.63795e-07 0)
(0.907712 -3.38929e-07 0)
(0.907703 -1.0597e-07 0)
(0.907717 -3.14423e-07 0)
(0.907698 5.40333e-08 0)
(0.907726 -3.51785e-07 0)
(0.907687 2.20097e-07 0)
(0.90774 -4.37863e-07 0)
(0.907671 3.79196e-07 0)
(0.90776 -5.19585e-07 0)
(0.907648 4.73049e-07 0)
(0.907784 -5.02035e-07 0)
(0.907623 3.90424e-07 0)
(0.907807 -2.53335e-07 0)
(0.907605 1.27611e-08 0)
(0.907816 3.23428e-07 0)
(0.907605 -6.81513e-07 0)
(0.907806 1.15518e-06 0)
(0.907621 -1.45678e-06 0)
(0.907785 1.85561e-06 0)
(0.907634 -1.71518e-06 0)
(0.907781 1.81165e-06 0)
(0.907617 -8.53994e-07 0)
(0.907804 1.09303e-06 0)
(0.907576 5.78022e-07 0)
(0.907821 1.63421e-06 0)
(0.907532 1.31031e-06 0)
(0.9078 4.60911e-06 0)
(0.90745 4.54049e-06 0)
(0.907734 5.22027e-06 0)
(0.907246 3.20406e-05 0)
(0.997248 0.00118762 0)
(0.996666 0.00172664 0)
(0.995789 0.00322963 0)
(0.995686 0.00447172 0)
(0.996307 0.00524379 0)
(0.996935 0.00564007 0)
(0.997225 0.00581364 0)
(0.997554 0.00599461 0)
(0.998261 0.00616673 0)
(0.999021 0.00650956 0)
(0.999499 0.00693675 0)
(0.99971 0.00717548 0)
(0.999888 0.00732513 0)
(1.00019 0.0072608 0)
(1.00046 0.00717256 0)
(1.00039 0.00739675 0)
(1.00006 0.00753267 0)
(1.00006 0.00763302 0)
(1.00051 0.00780662 0)
(1.0007 0.00768031 0)
(1.00053 0.00771008 0)
(1.00066 0.00799862 0)
(1.00076 0.00789018 0)
(1.00042 0.00754618 0)
(1.00009 0.00714757 0)
(0.999582 0.00640455 0)
(0.99865 0.00538835 0)
(0.99777 0.00431493 0)
(0.996773 0.00336392 0)
(0.995438 0.00266141 0)
(0.994198 0.0020304 0)
(0.99296 0.00139743 0)
(0.991521 0.000989804 0)
(0.990304 0.000814658 0)
(0.989351 0.000727674 0)
(0.988358 0.000817053 0)
(0.987564 0.00105425 0)
(0.98712 0.00109487 0)
(0.986532 0.000830334 0)
(0.985581 0.000559348 0)
(0.984698 0.000472808 0)
(0.984142 0.000450134 0)
(0.983701 0.000367505 0)
(0.983205 0.000258067 0)
(0.98274 0.000173934 0)
(0.982398 9.93792e-05 0)
(0.982162 9.96681e-06 0)
(0.982 -8.26023e-05 0)
(0.981915 -0.000153788 0)
(0.981912 -0.000193283 0)
(0.981985 -0.000204793 0)
(0.982127 -0.00019647 0)
(0.982332 -0.000175934 0)
(0.982587 -0.000149033 0)
(0.982869 -0.00011982 0)
(0.983149 -9.11653e-05 0)
(0.983399 -6.53191e-05 0)
(0.983604 -4.39167e-05 0)
(0.983757 -2.7706e-05 0)
(0.983862 -1.64762e-05 0)
(0.983929 -9.34702e-06 0)
(0.983969 -5.16605e-06 0)
(0.983991 -2.89081e-06 0)
(0.984002 -1.70452e-06 0)
(0.984008 -1.1161e-06 0)
(0.984009 -7.81691e-07 0)
(0.98401 -6.14788e-07 0)
(0.984008 -4.485e-07 0)
(0.984011 -4.01704e-07 0)
(0.984005 -2.53675e-07 0)
(0.984011 -2.94951e-07 0)
(0.984 -1.05137e-07 0)
(0.984014 -2.52282e-07 0)
(0.983992 3.47115e-08 0)
(0.984022 -2.66526e-07 0)
(0.983979 1.69142e-07 0)
(0.984035 -3.24844e-07 0)
(0.98396 2.9279e-07 0)
(0.984057 -3.81605e-07 0)
(0.983933 3.62781e-07 0)
(0.984085 -3.59742e-07 0)
(0.983902 2.87228e-07 0)
(0.984113 -1.39922e-07 0)
(0.983877 -5.26105e-08 0)
(0.984129 4.00717e-07 0)
(0.98387 -7.33029e-07 0)
(0.984123 1.27313e-06 0)
(0.983886 -1.60422e-06 0)
(0.984098 2.14727e-06 0)
(0.98391 -2.02418e-06 0)
(0.984077 2.25701e-06 0)
(0.983915 -1.09823e-06 0)
(0.984081 1.43619e-06 0)
(0.983892 7.66695e-07 0)
(0.98409 1.946e-06 0)
(0.983862 1.93622e-06 0)
(0.984068 5.50241e-06 0)
(0.983817 5.961e-06 0)
(0.984003 7.0416e-06 0)
(0.983682 3.6082e-05 0)
(0.997435 0.00165729 0)
(0.997038 0.00173438 0)